<?xml version="1.0" encoding="UTF-8"?>

<!-- generated on Thu May 27 15:40:19 2021 by Eclipse SUMO sumo Version v1_7_0+1228-0b1a97d77e
<configuration xmlns:xsi="http://www.w3.org/2001/XMLSchema-instance" xsi:noNamespaceSchemaLocation="http://sumo.dlr.de/xsd/sumoConfiguration.xsd">

    <input>
        <net-file value="moabit_exp.net.xml"/>
        <route-files value="moabit_default_ped.trips.xml"/>
    </input>

    <output>
        <fcd-output value="fcd_out.xml"/>
        <fcd-output.geo value="true"/>
    </output>

    <time>
        <begin value="0"/>
        <end value="10000"/>
    </time>

    <processing>
        <tls.actuated.show-detectors value="true"/>
    </processing>

    <fcd_device>
        <device.fcd.explicit value="vehDist"/>
    </fcd_device>

</configuration>
-->

<fcd-export xmlns:xsi="http://www.w3.org/2001/XMLSchema-instance" xsi:noNamespaceSchemaLocation="http://sumo.dlr.de/xsd/fcd_file.xsd">
    <timestep time="0.00">
        <person id="personFlow_0.0" x="13.331299" y="52.527205" angle="280.451129" speed="0.000000" pos="0.000000" edge="482223508#0" slope="0.000000"/>
    </timestep>
    <timestep time="1.00">
        <person id="personFlow_0.0" x="13.331234" y="52.527211" angle="280.451129" speed="4.456036" pos="4.456036" edge="482223508#0" slope="0.000000"/>
    </timestep>
    <timestep time="2.00">
        <person id="personFlow_0.0" x="13.331167" y="52.527218" angle="280.451129" speed="4.649629" pos="9.105666" edge="482223508#0" slope="0.000000"/>
    </timestep>
    <timestep time="3.00">
        <person id="personFlow_0.0" x="13.331089" y="52.527226" angle="280.451129" speed="5.372979" pos="14.478645" edge="482223508#0" slope="0.000000"/>
    </timestep>
    <timestep time="4.00">
        <person id="personFlow_0.0" x="13.331017" y="52.527233" angle="280.451129" speed="4.889347" pos="19.367992" edge="482223508#0" slope="0.000000"/>
    </timestep>
    <timestep time="5.00">
        <person id="personFlow_0.0" x="13.330948" y="52.527240" angle="280.451129" speed="4.782517" pos="24.150509" edge="482223508#0" slope="0.000000"/>
    </timestep>
    <timestep time="6.00">
        <person id="personFlow_0.0" x="13.330870" y="52.527247" angle="280.451129" speed="5.375004" pos="29.525514" edge="482223508#0" slope="0.000000"/>
    </timestep>
    <timestep time="7.00">
        <person id="personFlow_0.0" x="13.330805" y="52.527255" angle="287.809929" speed="4.616267" pos="1.561781" edge=":cluster_26726587_26984409_29927301_5500265034_5500265035_5500265036_5500265037_5500265038_5500265039_5500265040_5500265041_5500265042_5500265043_5500265044_9" slope="0.000000"/>
    </timestep>
    <timestep time="8.00">
        <person id="personFlow_0.0" x="13.330744" y="52.527273" angle="308.659808" speed="5.153895" pos="0.655676" edge=":cluster_26726587_26984409_29927301_5500265034_5500265035_5500265036_5500265037_5500265038_5500265039_5500265040_5500265041_5500265042_5500265043_5500265044_28" slope="0.000000"/>
    </timestep>
    <timestep time="9.00">
        <person id="personFlow_0.0" x="13.330717" y="52.527301" angle="0.584631" speed="4.830971" pos="5.486647" edge=":cluster_26726587_26984409_29927301_5500265034_5500265035_5500265036_5500265037_5500265038_5500265039_5500265040_5500265041_5500265042_5500265043_5500265044_28" slope="0.000000"/>
    </timestep>
    <timestep time="10.00">
        <person id="personFlow_0.0" x="13.330719" y="52.527340" angle="9.559262" speed="4.614248" pos="1.030894" edge="4703556#1" slope="0.000000"/>
    </timestep>
    <timestep time="11.00">
        <person id="personFlow_0.0" x="13.330730" y="52.527389" angle="9.559262" speed="5.415755" pos="6.446649" edge="4703556#1" slope="0.000000"/>
    </timestep>
    <timestep time="12.00">
        <person id="personFlow_0.0" x="13.330740" y="52.527430" angle="9.559262" speed="4.692454" pos="11.139103" edge="4703556#1" slope="0.000000"/>
    </timestep>
    <timestep time="13.00">
        <person id="personFlow_0.0" x="13.330750" y="52.527474" angle="9.559262" speed="4.916763" pos="16.055866" edge="4703556#1" slope="0.000000"/>
    </timestep>
    <timestep time="14.00">
        <person id="personFlow_0.0" x="13.330761" y="52.527518" angle="9.559262" speed="4.932003" pos="20.987869" edge="4703556#1" slope="0.000000"/>
    </timestep>
    <timestep time="15.00">
        <person id="personFlow_0.0" x="13.330771" y="52.527561" angle="9.559262" speed="4.808197" pos="25.796065" edge="4703556#1" slope="0.000000"/>
    </timestep>
    <timestep time="16.00">
        <person id="personFlow_0.0" x="13.330782" y="52.527606" angle="9.559262" speed="5.135443" pos="30.931509" edge="4703556#1" slope="0.000000"/>
    </timestep>
    <timestep time="17.00">
        <person id="personFlow_0.0" x="13.330793" y="52.527654" angle="9.559262" speed="5.356953" pos="36.288462" edge="4703556#1" slope="0.000000"/>
    </timestep>
    <timestep time="18.00">
        <person id="personFlow_0.0" x="13.330803" y="52.527694" angle="9.559262" speed="4.472764" pos="40.761226" edge="4703556#1" slope="0.000000"/>
    </timestep>
    <timestep time="19.00">
        <person id="personFlow_0.0" x="13.330813" y="52.527739" angle="9.559262" speed="5.073143" pos="45.834369" edge="4703556#1" slope="0.000000"/>
    </timestep>
    <timestep time="20.00">
        <person id="personFlow_0.0" x="13.330823" y="52.527781" angle="9.559262" speed="4.680956" pos="50.515324" edge="4703556#1" slope="0.000000"/>
    </timestep>
    <timestep time="21.00">
        <person id="personFlow_0.0" x="13.330834" y="52.527828" angle="9.559262" speed="5.372201" pos="55.887525" edge="4703556#1" slope="0.000000"/>
    </timestep>
    <timestep time="22.00">
        <person id="personFlow_0.0" x="13.330845" y="52.527872" angle="9.559262" speed="4.866008" pos="60.753533" edge="4703556#1" slope="0.000000"/>
    </timestep>
    <timestep time="23.00">
        <person id="personFlow_0.0" x="13.330855" y="52.527917" angle="9.559262" speed="5.089301" pos="65.842835" edge="4703556#1" slope="0.000000"/>
    </timestep>
    <timestep time="24.00">
        <person id="personFlow_0.0" x="13.330865" y="52.527959" angle="9.559262" speed="4.735320" pos="70.578154" edge="4703556#1" slope="0.000000"/>
    </timestep>
    <timestep time="25.00">
        <person id="personFlow_0.0" x="13.330875" y="52.527998" angle="9.559262" speed="4.403949" pos="74.982104" edge="4703556#1" slope="0.000000"/>
    </timestep>
    <timestep time="26.00">
        <person id="personFlow_0.0" x="13.330884" y="52.528038" angle="9.559262" speed="4.528371" pos="79.510475" edge="4703556#1" slope="0.000000"/>
    </timestep>
    <timestep time="27.00">
        <person id="personFlow_0.0" x="13.330894" y="52.528078" angle="9.559262" speed="4.459706" pos="83.970181" edge="4703556#1" slope="0.000000"/>
    </timestep>
    <timestep time="28.00">
        <person id="personFlow_0.0" x="13.330904" y="52.528123" angle="9.559262" speed="4.992227" pos="88.962408" edge="4703556#1" slope="0.000000"/>
    </timestep>
    <timestep time="29.00">
        <person id="personFlow_0.0" x="13.330914" y="52.528166" angle="9.559262" speed="4.832014" pos="93.794421" edge="4703556#1" slope="0.000000"/>
    </timestep>
    <timestep time="30.00">
        <person id="personFlow_0.0" x="13.330925" y="52.528211" angle="9.559262" speed="5.165589" pos="98.960011" edge="4703556#1" slope="0.000000"/>
    </timestep>
    <timestep time="31.00">
        <person id="personFlow_0.0" x="13.330937" y="52.528259" angle="9.559262" speed="5.387144" pos="104.347155" edge="4703556#1" slope="0.000000"/>
    </timestep>
    <timestep time="32.00">
        <person id="personFlow_0.0" x="13.330947" y="52.528305" angle="9.559262" speed="5.095051" pos="109.442206" edge="4703556#1" slope="0.000000"/>
    </timestep>
    <timestep time="33.00">
        <person id="personFlow_0.0" x="13.330957" y="52.528346" angle="9.559262" speed="4.593228" pos="114.035434" edge="4703556#1" slope="0.000000"/>
    </timestep>
    <timestep time="34.00">
        <person id="personFlow_0.0" x="13.330968" y="52.528392" angle="9.559262" speed="5.249755" pos="119.285189" edge="4703556#1" slope="0.000000"/>
    </timestep>
    <timestep time="35.00">
        <person id="personFlow_0.0" x="13.330978" y="52.528431" angle="9.559262" speed="4.384916" pos="123.670105" edge="4703556#1" slope="0.000000"/>
    </timestep>
    <timestep time="36.00">
        <person id="personFlow_0.0" x="13.330986" y="52.528485" angle="339.676863" speed="5.389958" pos="0.790063" edge=":29927302_0" slope="0.000000"/>
    </timestep>
    <timestep time="37.00">
        <person id="personFlow_0.0" x="13.330910" y="52.528506" angle="281.390336" speed="4.679368" pos="2.949431" edge="203910785" slope="0.000000"/>
    </timestep>
    <timestep time="38.00">
        <person id="personFlow_0.0" x="13.330839" y="52.528515" angle="289.062577" speed="5.063010" pos="1.022441" edge=":29927303_0" slope="0.000000"/>
    </timestep>
    <timestep time="39.00">
        <person id="personFlow_0.0" x="13.330802" y="52.528539" angle="350.351955" speed="5.281997" pos="6.304438" edge=":29927303_0" slope="0.000000"/>
    </timestep>
    <timestep time="40.00">
        <person id="personFlow_0.0" x="13.330798" y="52.528582" angle="9.677013" speed="5.286328" pos="3.990765" edge="-405894861" slope="0.000000"/>
    </timestep>
    <timestep time="41.00">
        <person id="personFlow_0.0" x="13.330808" y="52.528626" angle="9.677013" speed="4.976212" pos="8.966978" edge="-405894861" slope="0.000000"/>
    </timestep>
    <timestep time="42.00">
        <person id="personFlow_0.0" x="13.330818" y="52.528665" angle="9.677013" speed="4.376292" pos="13.343270" edge="-405894861" slope="0.000000"/>
    </timestep>
    <timestep time="43.00">
        <person id="personFlow_0.0" x="13.330829" y="52.528711" angle="9.677013" speed="5.135924" pos="18.479193" edge="-405894861" slope="0.000000"/>
    </timestep>
    <timestep time="44.00">
        <person id="personFlow_0.0" x="13.330840" y="52.528757" angle="9.677013" speed="5.180323" pos="23.659516" edge="-405894861" slope="0.000000"/>
    </timestep>
    <timestep time="45.00">
        <person id="personFlow_0.0" x="13.330851" y="52.528804" angle="9.677013" speed="5.240163" pos="28.899679" edge="-405894861" slope="0.000000"/>
    </timestep>
    <timestep time="46.00">
        <person id="personFlow_0.0" x="13.330861" y="52.528846" angle="9.677013" speed="4.802413" pos="33.702092" edge="-405894861" slope="0.000000"/>
    </timestep>
    <timestep time="47.00">
        <person id="personFlow_0.0" x="13.330872" y="52.528892" angle="9.677013" speed="5.160523" pos="38.862615" edge="-405894861" slope="0.000000"/>
    </timestep>
    <timestep time="48.00">
        <person id="personFlow_0.0" x="13.330882" y="52.528933" angle="9.677013" speed="4.542043" pos="43.404659" edge="-405894861" slope="0.000000"/>
    </timestep>
    <timestep time="49.00">
        <person id="personFlow_0.0" x="13.330894" y="52.528980" angle="10.024092" speed="5.325759" pos="3.440417" edge=":26757043_7" slope="0.000000"/>
    </timestep>
    <timestep time="50.00">
        <person id="personFlow_0.0" x="13.330904" y="52.529022" angle="10.024092" speed="4.697744" pos="8.138161" edge=":26757043_7" slope="0.000000"/>
    </timestep>
    <timestep time="51.00">
        <person id="personFlow_0.0" x="13.330915" y="52.529063" angle="10.024092" speed="4.646304" pos="12.784465" edge=":26757043_7" slope="0.000000"/>
    </timestep>
    <timestep time="52.00">
        <person id="personFlow_0.0" x="13.330926" y="52.529105" angle="10.420379" speed="4.775716" pos="3.140181" edge="-29400740#5" slope="0.000000"/>
    </timestep>
    <timestep time="53.00">
        <person id="personFlow_0.0" x="13.330936" y="52.529147" angle="10.420379" speed="4.672278" pos="7.812459" edge="-29400740#5" slope="0.000000"/>
    </timestep>
    <timestep time="54.00">
        <person id="personFlow_0.0" x="13.330947" y="52.529186" angle="10.420379" speed="4.408272" pos="12.220731" edge="-29400740#5" slope="0.000000"/>
    </timestep>
    <timestep time="55.00">
        <person id="personFlow_0.0" x="13.330957" y="52.529225" angle="10.420379" speed="4.381283" pos="16.602014" edge="-29400740#5" slope="0.000000"/>
    </timestep>
    <timestep time="56.00">
        <person id="personFlow_0.0" x="13.330969" y="52.529270" angle="10.420379" speed="5.088518" pos="21.690532" edge="-29400740#5" slope="0.000000"/>
    </timestep>
    <timestep time="57.00">
        <person id="personFlow_0.0" x="13.330980" y="52.529313" angle="10.420379" speed="4.888125" pos="26.578657" edge="-29400740#5" slope="0.000000"/>
    </timestep>
    <timestep time="58.00">
        <person id="personFlow_0.0" x="13.330991" y="52.529356" angle="10.420379" speed="4.793239" pos="31.371896" edge="-29400740#5" slope="0.000000"/>
    </timestep>
    <timestep time="59.00">
        <person id="personFlow_0.0" x="13.331004" y="52.529402" angle="10.420379" speed="5.239678" pos="36.611574" edge="-29400740#5" slope="0.000000"/>
    </timestep>
    <timestep time="60.00">
        <person id="personFlow_0.0" x="13.331014" y="52.529441" angle="10.420379" speed="4.386743" pos="40.998318" edge="-29400740#5" slope="0.000000"/>
    </timestep>
    <timestep time="61.00">
        <person id="personFlow_0.0" x="13.331026" y="52.529488" angle="10.420379" speed="5.223456" pos="46.221774" edge="-29400740#5" slope="0.000000"/>
    </timestep>
    <timestep time="62.00">
        <person id="personFlow_0.0" x="13.331037" y="52.529529" angle="10.420379" speed="4.726467" pos="50.948241" edge="-29400740#5" slope="0.000000"/>
    </timestep>
    <timestep time="63.00">
        <person id="personFlow_0.0" x="13.331049" y="52.529576" angle="10.420379" speed="5.257644" pos="56.205885" edge="-29400740#5" slope="0.000000"/>
    </timestep>
    <timestep time="64.00">
        <person id="personFlow_0.0" x="13.331062" y="52.529624" angle="10.420379" speed="5.392111" pos="61.597995" edge="-29400740#5" slope="0.000000"/>
    </timestep>
    <timestep time="65.00">
        <person id="personFlow_0.0" x="13.331074" y="52.529669" angle="10.420379" speed="5.119907" pos="66.717902" edge="-29400740#5" slope="0.000000"/>
    </timestep>
    <timestep time="66.00">
        <person id="personFlow_0.0" x="13.331085" y="52.529712" angle="10.420379" speed="4.829351" pos="71.547253" edge="-29400740#5" slope="0.000000"/>
    </timestep>
    <timestep time="67.00">
        <person id="personFlow_0.0" x="13.331095" y="52.529751" angle="10.420379" speed="4.415805" pos="75.963058" edge="-29400740#5" slope="0.000000"/>
    </timestep>
    <timestep time="68.00">
        <person id="personFlow_0.0" x="13.331108" y="52.529799" angle="10.420379" speed="5.349670" pos="81.312728" edge="-29400740#5" slope="0.000000"/>
    </timestep>
    <timestep time="69.00">
        <person id="personFlow_0.0" x="13.331120" y="52.529845" angle="10.420379" speed="5.228205" pos="86.540933" edge="-29400740#5" slope="0.000000"/>
    </timestep>
    <timestep time="70.00">
        <person id="personFlow_0.0" x="13.331130" y="52.529884" angle="10.420379" speed="4.346223" pos="90.887156" edge="-29400740#5" slope="0.000000"/>
    </timestep>
    <timestep time="71.00">
        <person id="personFlow_0.0" x="13.331142" y="52.529929" angle="10.420379" speed="5.081930" pos="95.969086" edge="-29400740#5" slope="0.000000"/>
    </timestep>
    <timestep time="72.00">
        <person id="personFlow_0.0" x="13.331154" y="52.529974" angle="10.420379" speed="5.054653" pos="101.023739" edge="-29400740#5" slope="0.000000"/>
    </timestep>
    <timestep time="73.00">
        <person id="personFlow_0.0" x="13.331166" y="52.530021" angle="10.420379" speed="5.329017" pos="106.352756" edge="-29400740#5" slope="0.000000"/>
    </timestep>
    <timestep time="74.00">
        <person id="personFlow_0.0" x="13.331177" y="52.530064" angle="10.420379" speed="4.807252" pos="111.160008" edge="-29400740#5" slope="0.000000"/>
    </timestep>
    <timestep time="75.00">
        <person id="personFlow_0.0" x="13.331189" y="52.530110" angle="10.420379" speed="5.197632" pos="116.357639" edge="-29400740#5" slope="0.000000"/>
    </timestep>
    <timestep time="76.00">
        <person id="personFlow_0.0" x="13.331202" y="52.530156" angle="10.420379" speed="5.226378" pos="121.584018" edge="-29400740#5" slope="0.000000"/>
    </timestep>
    <timestep time="77.00">
        <person id="personFlow_0.0" x="13.331214" y="52.530204" angle="10.420379" speed="5.371499" pos="126.955517" edge="-29400740#5" slope="0.000000"/>
    </timestep>
    <timestep time="78.00">
        <person id="personFlow_0.0" x="13.331226" y="52.530251" angle="10.420379" speed="5.335544" pos="132.291060" edge="-29400740#5" slope="0.000000"/>
    </timestep>
    <timestep time="79.00">
        <person id="personFlow_0.0" x="13.331237" y="52.530293" angle="10.420379" speed="4.639454" pos="136.930515" edge="-29400740#5" slope="0.000000"/>
    </timestep>
    <timestep time="80.00">
        <person id="personFlow_0.0" x="13.331249" y="52.530337" angle="10.420379" speed="5.040737" pos="141.971252" edge="-29400740#5" slope="0.000000"/>
    </timestep>
    <timestep time="81.00">
        <person id="personFlow_0.0" x="13.331261" y="52.530383" angle="10.420379" speed="5.107766" pos="147.079017" edge="-29400740#5" slope="0.000000"/>
    </timestep>
    <timestep time="82.00">
        <person id="personFlow_0.0" x="13.331273" y="52.530429" angle="10.420379" speed="5.191997" pos="152.271014" edge="-29400740#5" slope="0.000000"/>
    </timestep>
    <timestep time="83.00">
        <person id="personFlow_0.0" x="13.331284" y="52.530470" angle="10.420379" speed="4.686301" pos="156.957315" edge="-29400740#5" slope="0.000000"/>
    </timestep>
    <timestep time="84.00">
        <person id="personFlow_0.0" x="13.331296" y="52.530514" angle="10.420379" speed="4.963334" pos="161.920650" edge="-29400740#5" slope="0.000000"/>
    </timestep>
    <timestep time="85.00">
        <person id="personFlow_0.0" x="13.331307" y="52.530557" angle="10.420379" speed="4.755232" pos="166.675881" edge="-29400740#5" slope="0.000000"/>
    </timestep>
    <timestep time="86.00">
        <person id="personFlow_0.0" x="13.331318" y="52.530601" angle="10.420379" speed="4.999631" pos="171.675513" edge="-29400740#5" slope="0.000000"/>
    </timestep>
    <timestep time="87.00">
        <person id="personFlow_0.0" x="13.331330" y="52.530644" angle="10.420379" speed="4.866165" pos="176.541678" edge="-29400740#5" slope="0.000000"/>
    </timestep>
    <timestep time="88.00">
        <person id="personFlow_0.0" x="13.331340" y="52.530684" angle="10.420379" speed="4.527043" pos="181.068721" edge="-29400740#5" slope="0.000000"/>
    </timestep>
    <timestep time="89.00">
        <person id="personFlow_0.0" x="13.331351" y="52.530727" angle="10.420379" speed="4.787873" pos="185.856594" edge="-29400740#5" slope="0.000000"/>
    </timestep>
    <timestep time="90.00">
        <person id="personFlow_0.0" x="13.331363" y="52.530771" angle="10.420379" speed="4.969890" pos="190.826484" edge="-29400740#5" slope="0.000000"/>
    </timestep>
    <timestep time="91.00">
        <person id="personFlow_0.0" x="13.331375" y="52.530816" angle="10.449747" speed="5.026282" pos="1.572767" edge=":26726583_9" slope="0.000000"/>
    </timestep>
    <timestep time="92.00">
        <person id="personFlow_0.0" x="13.331385" y="52.530854" angle="10.449747" speed="4.362975" pos="5.935741" edge=":26726583_9" slope="0.000000"/>
    </timestep>
    <timestep time="93.00">
        <person id="personFlow_0.0" x="13.331397" y="52.530902" angle="10.449747" speed="5.396440" pos="11.332181" edge=":26726583_9" slope="0.000000"/>
    </timestep>
    <timestep time="94.00">
        <person id="personFlow_0.0" x="13.331409" y="52.530947" angle="10.471162" speed="5.093992" pos="1.926173" edge="-29400740#4" slope="0.000000"/>
    </timestep>
    <timestep time="95.00">
        <person id="personFlow_0.0" x="13.331422" y="52.530995" angle="10.471162" speed="5.308737" pos="7.234910" edge="-29400740#4" slope="0.000000"/>
    </timestep>
    <timestep time="96.00">
        <person id="personFlow_0.0" x="13.331432" y="52.531034" angle="10.471162" speed="4.472813" pos="11.707723" edge="-29400740#4" slope="0.000000"/>
    </timestep>
    <timestep time="97.00">
        <person id="personFlow_0.0" x="13.331443" y="52.531076" angle="10.471162" speed="4.744264" pos="16.451987" edge="-29400740#4" slope="0.000000"/>
    </timestep>
    <timestep time="98.00">
        <person id="personFlow_0.0" x="13.331454" y="52.531116" angle="10.471162" speed="4.419277" pos="20.871263" edge="-29400740#4" slope="0.000000"/>
    </timestep>
    <timestep time="99.00">
        <person id="personFlow_0.0" x="13.331465" y="52.531159" angle="10.471162" speed="4.888008" pos="25.759271" edge="-29400740#4" slope="0.000000"/>
    </timestep>
    <timestep time="100.00">
        <person id="personFlow_0.0" x="13.331477" y="52.531202" angle="10.471162" speed="4.858721" pos="30.617993" edge="-29400740#4" slope="0.000000"/>
    </timestep>
    <timestep time="101.00">
        <person id="personFlow_0.0" x="13.331477" y="52.531202" angle="10.471162" speed="0.000000" pos="30.617993" edge="-29400740#4" slope="0.000000"/>
    </timestep>
    <timestep time="102.00">
        <person id="personFlow_0.0" x="13.331477" y="52.531202" angle="10.471162" speed="0.000000" pos="30.617993" edge="-29400740#4" slope="0.000000"/>
    </timestep>
    <timestep time="103.00">
        <person id="personFlow_0.0" x="13.331477" y="52.531202" angle="10.471162" speed="0.000000" pos="30.617993" edge="-29400740#4" slope="0.000000"/>
    </timestep>
    <timestep time="104.00">
        <person id="personFlow_0.0" x="13.331477" y="52.531202" angle="10.471162" speed="0.000000" pos="30.617993" edge="-29400740#4" slope="0.000000"/>
    </timestep>
    <timestep time="105.00">
        <person id="personFlow_0.0" x="13.331477" y="52.531202" angle="10.471162" speed="0.000000" pos="30.617993" edge="-29400740#4" slope="0.000000"/>
    </timestep>
    <timestep time="106.00">
        <person id="personFlow_0.0" x="13.331477" y="52.531203" angle="10.471162" speed="0.139660" pos="30.757653" edge="-29400740#4" slope="0.000000"/>
    </timestep>
    <timestep time="107.00">
        <person id="personFlow_0.0" x="13.331477" y="52.531203" angle="10.471162" speed="0.000000" pos="30.757653" edge="-29400740#4" slope="0.000000"/>
    </timestep>
    <timestep time="108.00">
        <person id="personFlow_0.0" x="13.331477" y="52.531203" angle="10.471162" speed="0.000000" pos="30.757653" edge="-29400740#4" slope="0.000000"/>
    </timestep>
    <timestep time="109.00">
        <person id="personFlow_0.0" x="13.331477" y="52.531203" angle="10.471162" speed="0.000000" pos="30.757653" edge="-29400740#4" slope="0.000000"/>
    </timestep>
    <timestep time="110.00">
        <person id="personFlow_0.0" x="13.331477" y="52.531205" angle="10.885527" speed="0.211247" pos="0.158899" edge=":2824824737_2" slope="0.000000"/>
    </timestep>
    <timestep time="111.00">
        <person id="personFlow_0.0" x="13.331490" y="52.531249" angle="11.325081" speed="4.916588" pos="4.805488" edge="-29400740#3" slope="0.000000"/>
    </timestep>
    <timestep time="112.00">
        <person id="personFlow_0.0" x="13.331502" y="52.531290" angle="11.325081" speed="4.704585" pos="9.510072" edge="-29400740#3" slope="0.000000"/>
    </timestep>
    <timestep time="113.00">
        <person id="personFlow_0.0" x="13.331514" y="52.531331" angle="11.325081" speed="4.575335" pos="14.085408" edge="-29400740#3" slope="0.000000"/>
    </timestep>
    <timestep time="114.00">
        <person id="personFlow_0.0" x="13.331527" y="52.531376" angle="11.325081" speed="5.117342" pos="19.202750" edge="-29400740#3" slope="0.000000"/>
    </timestep>
    <timestep time="115.00">
        <person id="personFlow_0.0" x="13.331517" y="52.531423" angle="324.157809" speed="4.649929" pos="23.852679" edge="-29400740#3" slope="0.000000"/>
    </timestep>
    <timestep time="116.00">
        <person id="personFlow_0.0" x="13.331487" y="52.531455" angle="10.177725" speed="5.287504" pos="29.140183" edge="-29400740#3" slope="0.000000"/>
    </timestep>
    <timestep time="117.00">
        <person id="personFlow_0.0" x="13.331497" y="52.531496" angle="10.177725" speed="4.648781" pos="33.788964" edge="-29400740#3" slope="0.000000"/>
    </timestep>
    <timestep time="118.00">
        <person id="personFlow_0.0" x="13.331509" y="52.531543" angle="10.177725" speed="5.269222" pos="39.058186" edge="-29400740#3" slope="0.000000"/>
    </timestep>
    <timestep time="119.00">
        <person id="personFlow_0.0" x="13.331519" y="52.531582" angle="10.177725" speed="4.465808" pos="43.523994" edge="-29400740#3" slope="0.000000"/>
    </timestep>
    <timestep time="120.00">
        <person id="personFlow_0.0" x="13.331531" y="52.531627" angle="10.177725" speed="5.019302" pos="48.543296" edge="-29400740#3" slope="0.000000"/>
        <person id="personFlow_0.1" x="13.331299" y="52.527205" angle="280.451129" speed="0.000000" pos="0.000000" edge="482223508#0" slope="0.000000"/>
    </timestep>
    <timestep time="121.00">
        <person id="personFlow_0.0" x="13.331542" y="52.531670" angle="10.177725" speed="4.901735" pos="53.445031" edge="-29400740#3" slope="0.000000"/>
        <person id="personFlow_0.1" x="13.331232" y="52.527212" angle="280.451129" speed="4.626086" pos="4.626086" edge="482223508#0" slope="0.000000"/>
    </timestep>
    <timestep time="122.00">
        <person id="personFlow_0.0" x="13.331553" y="52.531715" angle="10.177725" speed="4.998643" pos="58.443674" edge="-29400740#3" slope="0.000000"/>
        <person id="personFlow_0.1" x="13.331173" y="52.527217" angle="280.451129" speed="4.035636" pos="8.661722" edge="482223508#0" slope="0.000000"/>
    </timestep>
    <timestep time="123.00">
        <person id="personFlow_0.0" x="13.331563" y="52.531754" angle="10.177725" speed="4.361466" pos="62.805140" edge="-29400740#3" slope="0.000000"/>
        <person id="personFlow_0.1" x="13.331117" y="52.527223" angle="280.451129" speed="3.876853" pos="12.538575" edge="482223508#0" slope="0.000000"/>
    </timestep>
    <timestep time="124.00">
        <person id="personFlow_0.0" x="13.331575" y="52.531800" angle="10.177725" speed="5.255768" pos="68.060908" edge="-29400740#3" slope="0.000000"/>
        <person id="personFlow_0.1" x="13.331061" y="52.527228" angle="280.451129" speed="3.821853" pos="16.360427" edge="482223508#0" slope="0.000000"/>
    </timestep>
    <timestep time="125.00">
        <person id="personFlow_0.0" x="13.331586" y="52.531845" angle="10.177725" speed="5.048642" pos="73.109550" edge="-29400740#3" slope="0.000000"/>
        <person id="personFlow_0.1" x="13.331002" y="52.527234" angle="280.451129" speed="4.046862" pos="20.407289" edge="482223508#0" slope="0.000000"/>
    </timestep>
    <timestep time="126.00">
        <person id="personFlow_0.0" x="13.331598" y="52.531889" angle="10.177725" speed="4.955051" pos="78.064601" edge="-29400740#3" slope="0.000000"/>
        <person id="personFlow_0.1" x="13.330942" y="52.527240" angle="280.451129" speed="4.116112" pos="24.523402" edge="482223508#0" slope="0.000000"/>
    </timestep>
    <timestep time="127.00">
        <person id="personFlow_0.0" x="13.331609" y="52.531935" angle="10.177725" speed="5.121596" pos="83.186198" edge="-29400740#3" slope="0.000000"/>
        <person id="personFlow_0.1" x="13.330880" y="52.527246" angle="280.451129" speed="4.311738" pos="28.835140" edge="482223508#0" slope="0.000000"/>
    </timestep>
    <timestep time="128.00">
        <person id="personFlow_0.1" x="13.330822" y="52.527252" angle="287.809929" speed="4.112758" pos="0.367898" edge=":cluster_26726587_26984409_29927301_5500265034_5500265035_5500265036_5500265037_5500265038_5500265039_5500265040_5500265041_5500265042_5500265043_5500265044_9" slope="0.000000"/>
        <person id="personFlow_0.0" x="13.331620" y="52.531976" angle="10.177725" speed="4.683947" pos="87.870145" edge="-29400740#3" slope="0.000000"/>
    </timestep>
    <timestep time="129.00">
        <person id="personFlow_0.1" x="13.330770" y="52.527261" angle="308.607626" speed="4.130814" pos="4.498712" edge=":cluster_26726587_26984409_29927301_5500265034_5500265035_5500265036_5500265037_5500265038_5500265039_5500265040_5500265041_5500265042_5500265043_5500265044_9" slope="0.000000"/>
        <person id="personFlow_0.0" x="13.331632" y="52.532023" angle="10.177725" speed="5.310735" pos="93.180879" edge="-29400740#3" slope="0.000000"/>
    </timestep>
    <timestep time="130.00">
        <person id="personFlow_0.1" x="13.330733" y="52.527279" angle="336.037511" speed="3.866520" pos="2.305231" edge=":cluster_26726587_26984409_29927301_5500265034_5500265035_5500265036_5500265037_5500265038_5500265039_5500265040_5500265041_5500265042_5500265043_5500265044_28" slope="0.000000"/>
        <person id="personFlow_0.0" x="13.331632" y="52.532023" angle="10.177725" speed="0.000000" pos="93.180879" edge="-29400740#3" slope="0.000000"/>
    </timestep>
    <timestep time="131.00">
        <person id="personFlow_0.1" x="13.330717" y="52.527307" angle="0.584631" speed="3.899611" pos="6.204842" edge=":cluster_26726587_26984409_29927301_5500265034_5500265035_5500265036_5500265037_5500265038_5500265039_5500265040_5500265041_5500265042_5500265043_5500265044_28" slope="0.000000"/>
        <person id="personFlow_0.0" x="13.331632" y="52.532023" angle="10.177725" speed="0.000000" pos="93.180879" edge="-29400740#3" slope="0.000000"/>
    </timestep>
    <timestep time="132.00">
        <person id="personFlow_0.0" x="13.331633" y="52.532027" angle="9.162347" speed="0.362260" pos="0.293139" edge=":2824824744_2" slope="0.000000"/>