<?xml version="1.0" encoding="UTF-8"?>

<!-- generated on Di 04 Mai 2021 16:08:53 CEST by Eclipse SUMO GUI Version v1_7_0+1228-0b1a97d77e
<configuration xmlns:xsi="http://www.w3.org/2001/XMLSchema-instance" xsi:noNamespaceSchemaLocation="http://sumo.dlr.de/xsd/sumoConfiguration.xsd">

    <input>
        <net-file value="../bismarck_traci/osm.net.xml"/>
        <route-files value="../bismarck_traci/bismarck.trips.xml"/>
    </input>

    <output>
        <fcd-output value="../bismarck_traci/sim_results/fcd_out_1.50_2.00_3.00_80.xml"/>
        <fcd-output.geo value="true"/>
    </output>

    <time>
        <begin value="0"/>
        <end value="2000"/>
    </time>

    <fcd_device>
        <device.fcd.explicit value="vehDist"/>
    </fcd_device>

    <traci_server>
        <remote-port value="50287"/>
    </traci_server>

</configuration>
-->

<fcd-export xmlns:xsi="http://www.w3.org/2001/XMLSchema-instance" xsi:noNamespaceSchemaLocation="http://sumo.dlr.de/xsd/fcd_file.xsd">
    <timestep time="0.00">
        <vehicle id="flow_0.0" x="13.319096" y="52.512566" angle="265.062208" type="vehDist71" speed="0.000000" pos="1.700000" lane="52578336#5_0" slope="0.000000"/>
    </timestep>
    <timestep time="1.00">
        <vehicle id="flow_0.0" x="13.319087" y="52.512565" angle="265.062208" type="vehDist71" speed="0.576191" pos="2.276191" lane="52578336#5_0" slope="0.000000"/>
    </timestep>
    <timestep time="2.00">
        <vehicle id="flow_0.0" x="13.319072" y="52.512564" angle="265.062208" type="vehDist71" speed="1.063356" pos="3.339548" lane="52578336#5_0" slope="0.000000"/>
    </timestep>
    <timestep time="3.00">
        <vehicle id="flow_0.0" x="13.319051" y="52.512563" angle="265.062208" type="vehDist71" speed="1.436760" pos="4.776308" lane="52578336#5_0" slope="0.000000"/>
    </timestep>
    <timestep time="4.00">
        <vehicle id="flow_0.0" x="13.319024" y="52.512561" angle="265.062208" type="vehDist71" speed="1.824119" pos="6.600427" lane="52578336#5_0" slope="0.000000"/>
    </timestep>
    <timestep time="5.00">
        <vehicle id="flow_0.0" x="13.318992" y="52.512559" angle="265.062208" type="vehDist71" speed="2.204151" pos="8.804578" lane="52578336#5_0" slope="0.000000"/>
    </timestep>
    <timestep time="6.00">
        <vehicle id="flow_0.0" x="13.318955" y="52.512556" angle="265.062208" type="vehDist71" speed="2.507933" pos="11.312511" lane="52578336#5_0" slope="0.000000"/>
    </timestep>
    <timestep time="7.00">
        <vehicle id="flow_0.0" x="13.318911" y="52.512553" angle="265.062208" type="vehDist71" speed="2.998488" pos="14.310998" lane="52578336#5_0" slope="0.000000"/>
    </timestep>
    <timestep time="8.00">
        <vehicle id="flow_0.0" x="13.318862" y="52.512550" angle="265.062208" type="vehDist71" speed="3.351092" pos="17.662090" lane="52578336#5_0" slope="0.000000"/>
    </timestep>
    <timestep time="9.00">
        <vehicle id="flow_0.0" x="13.318805" y="52.512546" angle="265.062208" type="vehDist71" speed="3.905955" pos="21.568045" lane="52578336#5_0" slope="0.000000"/>
    </timestep>
    <timestep time="10.00">
        <vehicle id="flow_0.0" x="13.318742" y="52.512542" angle="265.062208" type="vehDist71" speed="4.287864" pos="25.855909" lane="52578336#5_0" slope="0.000000"/>
    </timestep>
    <timestep time="11.00">
        <vehicle id="flow_0.0" x="13.318673" y="52.512537" angle="265.062208" type="vehDist71" speed="4.734876" pos="30.590785" lane="52578336#5_0" slope="0.000000"/>
    </timestep>
    <timestep time="12.00">
        <vehicle id="flow_0.0" x="13.318598" y="52.512532" angle="265.062208" type="vehDist71" speed="5.088395" pos="35.679180" lane="52578336#5_0" slope="0.000000"/>
    </timestep>
    <timestep time="13.00">
        <vehicle id="flow_0.0" x="13.318516" y="52.512527" angle="265.062208" type="vehDist71" speed="5.582253" pos="41.261433" lane="52578336#5_0" slope="0.000000"/>
    </timestep>
    <timestep time="14.00">
        <vehicle id="flow_0.0" x="13.318430" y="52.512521" angle="265.062208" type="vehDist71" speed="5.921896" pos="47.183329" lane="52578336#5_0" slope="0.000000"/>
    </timestep>
    <timestep time="15.00">
        <vehicle id="flow_0.0" x="13.318336" y="52.512515" angle="265.062208" type="vehDist71" speed="6.364704" pos="53.548033" lane="52578336#5_0" slope="0.000000"/>
    </timestep>
    <timestep time="16.00">
        <vehicle id="flow_0.0" x="13.318238" y="52.512508" angle="265.062208" type="vehDist71" speed="6.744658" pos="60.292691" lane="52578336#5_0" slope="0.000000"/>
    </timestep>
    <timestep time="17.00">
        <vehicle id="flow_0.0" x="13.318132" y="52.512501" angle="265.062208" type="vehDist71" speed="7.221703" pos="67.514394" lane="52578336#5_0" slope="0.000000"/>
    </timestep>
    <timestep time="18.00">
        <vehicle id="flow_0.0" x="13.318020" y="52.512494" angle="265.062208" type="vehDist71" speed="7.646216" pos="75.160610" lane="52578336#5_0" slope="0.000000"/>
    </timestep>
    <timestep time="19.00">
        <vehicle id="flow_0.0" x="13.317903" y="52.512486" angle="265.062208" type="vehDist71" speed="7.987816" pos="83.148426" lane="52578336#5_0" slope="0.000000"/>
    </timestep>
    <timestep time="20.00">
        <vehicle id="flow_0.0" x="13.317780" y="52.512477" angle="265.062208" type="vehDist71" speed="8.381157" pos="91.529583" lane="52578336#5_0" slope="0.000000"/>
    </timestep>
    <timestep time="21.00">
        <vehicle id="flow_0.0" x="13.317656" y="52.512469" angle="265.062208" type="vehDist71" speed="8.505512" pos="100.035095" lane="52578336#5_0" slope="0.000000"/>
    </timestep>
    <timestep time="22.00">
        <vehicle id="flow_0.0" x="13.317534" y="52.512461" angle="265.062208" type="vehDist71" speed="8.330491" pos="108.365586" lane="52578336#5_0" slope="0.000000"/>
    </timestep>
    <timestep time="23.00">
        <vehicle id="flow_0.0" x="13.317410" y="52.512453" angle="265.062208" type="vehDist71" speed="8.468004" pos="116.833591" lane="52578336#5_0" slope="0.000000"/>
    </timestep>
    <timestep time="24.00">
        <vehicle id="flow_0.0" x="13.317289" y="52.512445" angle="265.396687" type="vehDist71" speed="8.256727" pos="6.240318" lane=":cluster_1254415600_26704482_4782446440_4782446441_4782446442_4782446443_5997739567_5997739568_628156652_628156655_1_0" slope="0.000000"/>
    </timestep>
    <timestep time="25.00">
        <vehicle id="flow_0.0" x="13.317167" y="52.512437" angle="265.396687" type="vehDist71" speed="8.305565" pos="14.545883" lane=":cluster_1254415600_26704482_4782446440_4782446441_4782446442_4782446443_5997739567_5997739568_628156652_628156655_1_0" slope="0.000000"/>
    </timestep>
    <timestep time="26.00">
        <vehicle id="flow_0.0" x="13.317043" y="52.512429" angle="265.396687" type="vehDist71" speed="8.482392" pos="23.028275" lane=":cluster_1254415600_26704482_4782446440_4782446441_4782446442_4782446443_5997739567_5997739568_628156652_628156655_1_0" slope="0.000000"/>
    </timestep>
    <timestep time="27.00">
        <vehicle id="flow_0.0" x="13.316921" y="52.512421" angle="265.396687" type="vehDist71" speed="8.312727" pos="31.341002" lane=":cluster_1254415600_26704482_4782446440_4782446441_4782446442_4782446443_5997739567_5997739568_628156652_628156655_1_0" slope="0.000000"/>
    </timestep>
    <timestep time="28.00">
        <vehicle id="flow_0.0" x="13.316797" y="52.512413" angle="265.140048" type="vehDist71" speed="8.454173" pos="7.145175" lane="109612315#0_0" slope="0.000000"/>
    </timestep>
    <timestep time="29.00">
        <vehicle id="flow_0.0" x="13.316675" y="52.512405" angle="265.140048" type="vehDist71" speed="8.338382" pos="15.483556" lane="109612315#0_0" slope="0.000000"/>
    </timestep>
    <timestep time="30.00">
        <vehicle id="flow_0.0" x="13.316553" y="52.512397" angle="265.140048" type="vehDist71" speed="8.288853" pos="23.772409" lane="109612315#0_0" slope="0.000000"/>
    </timestep>
    <timestep time="31.00">
        <vehicle id="flow_0.0" x="13.316428" y="52.512389" angle="265.140048" type="vehDist71" speed="8.529819" pos="32.302229" lane="109612315#0_0" slope="0.000000"/>
    </timestep>
    <timestep time="32.00">
        <vehicle id="flow_0.0" x="13.316304" y="52.512381" angle="265.140048" type="vehDist71" speed="8.486841" pos="40.789070" lane="109612315#0_0" slope="0.000000"/>
    </timestep>
    <timestep time="33.00">
        <vehicle id="flow_0.0" x="13.316180" y="52.512372" angle="264.944803" type="vehDist71" speed="8.463101" pos="49.252171" lane="109612315#0_0" slope="0.000000"/>
    </timestep>
    <timestep time="34.00">
        <vehicle id="flow_0.0" x="13.316056" y="52.512364" angle="264.907885" type="vehDist71" speed="8.491679" pos="57.743850" lane="109612315#0_0" slope="0.000000"/>
    </timestep>
    <timestep time="35.00">
        <vehicle id="flow_0.0" x="13.315933" y="52.512355" angle="264.907885" type="vehDist71" speed="8.408148" pos="66.151998" lane="109612315#0_0" slope="0.000000"/>
    </timestep>
    <timestep time="36.00">
        <vehicle id="flow_0.0" x="13.315810" y="52.512347" angle="265.178029" type="vehDist71" speed="8.390460" pos="2.742458" lane="109612315#2_0" slope="0.000000"/>
    </timestep>
    <timestep time="37.00">
        <vehicle id="flow_0.0" x="13.315691" y="52.512339" angle="265.189540" type="vehDist71" speed="8.262209" pos="5.204667" lane="109612315#3_0" slope="0.000000"/>
    </timestep>
    <timestep time="38.00">
        <vehicle id="flow_0.0" x="13.315577" y="52.512313" angle="250.189540" type="vehDist71" speed="8.262209" pos="13.199967" lane="109612315#3_1" slope="0.000000"/>
    </timestep>
    <timestep time="39.00">
        <vehicle id="flow_0.0" x="13.315475" y="52.512219" angle="250.189540" type="vehDist71" speed="8.262209" pos="21.066293" lane="109612315#3_4" slope="0.000000"/>
    </timestep>
    <timestep time="40.00">
        <vehicle id="flow_0.0" x="13.315370" y="52.512212" angle="295.189540" type="vehDist71" speed="8.262209" pos="28.194551" lane="109612315#3_4" slope="0.000000"/>
        <vehicle id="flow_0.1" x="13.319096" y="52.512566" angle="265.062208" type="vehDist6" speed="0.000000" pos="1.700000" lane="52578336#5_0" slope="0.000000"/>
    </timestep>
    <timestep time="41.00">
        <vehicle id="flow_0.0" x="13.315254" y="52.512205" angle="280.189540" type="vehDist71" speed="8.262209" pos="36.145210" lane="109612315#3_4" slope="0.000000"/>
        <vehicle id="flow_0.1" x="13.319088" y="52.512565" angle="265.062208" type="vehDist6" speed="0.519665" pos="2.219665" lane="52578336#5_0" slope="0.000000"/>
    </timestep>
    <timestep time="42.00">
        <vehicle id="flow_0.0" x="13.315132" y="52.512197" angle="265.189540" type="vehDist71" speed="5.866895" pos="44.376448" lane="109612315#3_4" slope="0.000000"/>
        <vehicle id="flow_0.1" x="13.319073" y="52.512564" angle="265.062208" type="vehDist6" speed="1.051934" pos="3.271599" lane="52578336#5_0" slope="0.000000"/>
    </timestep>
    <timestep time="43.00">
        <vehicle id="flow_0.0" x="13.315042" y="52.512183" angle="250.189540" type="vehDist71" speed="0.000000" pos="5.821718" lane=":junc_01_16_0" slope="0.000000"/>
        <vehicle id="flow_0.1" x="13.319050" y="52.512563" angle="265.062208" type="vehDist6" speed="1.561064" pos="4.832663" lane="52578336#5_0" slope="0.000000"/>
    </timestep>
    <timestep time="44.00">
        <vehicle id="flow_0.0" x="13.315035" y="52.512182" angle="250.189540" type="vehDist71" speed="0.577000" pos="6.318187" lane=":junc_01_16_0" slope="0.000000"/>
        <vehicle id="flow_0.1" x="13.319019" y="52.512561" angle="265.062208" type="vehDist6" speed="2.088584" pos="6.921246" lane="52578336#5_0" slope="0.000000"/>
    </timestep>
    <timestep time="45.00">
        <vehicle id="flow_0.0" x="13.315020" y="52.512180" angle="250.189540" type="vehDist71" speed="1.154000" pos="7.387581" lane=":junc_01_16_0" slope="0.000000"/>
        <vehicle id="flow_0.1" x="13.318982" y="52.512558" angle="265.062208" type="vehDist6" speed="2.561826" pos="9.483072" lane="52578336#5_0" slope="0.000000"/>
    </timestep>
    <timestep time="46.00">
        <vehicle id="flow_0.0" x="13.314996" y="52.512176" angle="250.189540" type="vehDist71" speed="1.731000" pos="9.029899" lane=":junc_01_16_0" slope="0.000000"/>
        <vehicle id="flow_0.1" x="13.318938" y="52.512555" angle="265.062208" type="vehDist6" speed="2.972800" pos="12.455873" lane="52578336#5_0" slope="0.000000"/>
    </timestep>
    <timestep time="47.00">
        <vehicle id="flow_0.0" x="13.314967" y="52.512171" angle="235.189540" type="vehDist71" speed="2.308000" pos="11.101553" lane=":junc_01_16_0" slope="0.000000"/>
        <vehicle id="flow_0.1" x="13.318887" y="52.512552" angle="265.062208" type="vehDist6" speed="3.510974" pos="15.966847" lane="52578336#5_0" slope="0.000000"/>
    </timestep>
    <timestep time="48.00">
        <vehicle id="flow_0.0" x="13.314933" y="52.512158" angle="220.189540" type="vehDist71" speed="2.885000" pos="13.821503" lane=":junc_01_16_0" slope="0.000000"/>
        <vehicle id="flow_0.1" x="13.318830" y="52.512548" angle="265.062208" type="vehDist6" speed="3.852452" pos="19.819299" lane="52578336#5_0" slope="0.000000"/>
    </timestep>
    <timestep time="49.00">
        <vehicle id="flow_0.0" x="13.314894" y="52.512141" angle="220.189540" type="vehDist71" speed="3.462000" pos="17.077253" lane=":junc_01_16_0" slope="0.000000"/>
        <vehicle id="flow_0.1" x="13.318767" y="52.512544" angle="265.062208" type="vehDist6" speed="4.315930" pos="24.135230" lane="52578336#5_0" slope="0.000000"/>
    </timestep>
    <timestep time="50.00">
        <vehicle id="flow_0.0" x="13.314853" y="52.512124" angle="205.189540" type="vehDist71" speed="3.920874" pos="20.477772" lane=":junc_01_16_0" slope="0.000000"/>
        <vehicle id="flow_0.1" x="13.318699" y="52.512539" angle="265.062208" type="vehDist6" speed="4.649477" pos="28.784707" lane="52578336#5_0" slope="0.000000"/>
    </timestep>
    <timestep time="51.00">
        <vehicle id="flow_0.0" x="13.314815" y="52.512092" angle="205.189540" type="vehDist71" speed="4.497874" pos="2.917404" lane=":junc_01_41_0" slope="0.000000"/>
        <vehicle id="flow_0.1" x="13.318627" y="52.512534" angle="265.062208" type="vehDist6" speed="4.946355" pos="33.731062" lane="52578336#5_0" slope="0.000000"/>
    </timestep>
    <timestep time="52.00">
        <vehicle id="flow_0.0" x="13.314776" y="52.512054" angle="205.189540" type="vehDist71" speed="5.074874" pos="7.870106" lane=":junc_01_41_0" slope="0.000000"/>
        <vehicle id="flow_0.1" x="13.318548" y="52.512529" angle="265.062208" type="vehDist6" speed="5.374425" pos="39.105486" lane="52578336#5_0" slope="0.000000"/>
    </timestep>
    <timestep time="53.00">
        <vehicle id="flow_0.0" x="13.314750" y="52.512006" angle="190.189540" type="vehDist71" speed="5.651874" pos="13.539187" lane=":junc_01_41_0" slope="0.000000"/>
        <vehicle id="flow_0.1" x="13.318461" y="52.512523" angle="265.062208" type="vehDist6" speed="5.924296" pos="45.029783" lane="52578336#5_0" slope="0.000000"/>
    </timestep>
    <timestep time="54.00">
        <vehicle id="flow_0.0" x="13.314693" y="52.511935" angle="190.189540" type="vehDist71" speed="6.228874" pos="0.000000" lane="4490162#0_0" slope="0.000000"/>
        <vehicle id="flow_0.1" x="13.318367" y="52.512517" angle="265.062208" type="vehDist6" speed="6.442490" pos="51.472272" lane="52578336#5_0" slope="0.000000"/>
    </timestep>
    <timestep time="55.00">
        <vehicle id="flow_0.0" x="13.314684" y="52.511876" angle="175.189540" type="vehDist71" speed="6.805874" pos="6.598873" lane="4490162#0_0" slope="0.000000"/>
        <vehicle id="flow_0.1" x="13.318267" y="52.512510" angle="265.062208" type="vehDist6" speed="6.804917" pos="58.277190" lane="52578336#5_0" slope="0.000000"/>
    </timestep>
    <timestep time="56.00">
        <vehicle id="flow_0.0" x="13.314675" y="52.511812" angle="175.189540" type="vehDist71" speed="7.382874" pos="13.763599" lane="4490162#0_0" slope="0.000000"/>
        <vehicle id="flow_0.1" x="13.318163" y="52.512503" angle="265.062208" type="vehDist6" speed="7.134805" pos="65.411995" lane="52578336#5_0" slope="0.000000"/>
    </timestep>
    <timestep time="57.00">
        <vehicle id="flow_0.0" x="13.314665" y="52.511743" angle="175.189540" type="vehDist71" speed="7.959874" pos="21.494177" lane="4490162#0_0" slope="0.000000"/>
        <vehicle id="flow_0.1" x="13.318053" y="52.512496" angle="265.062208" type="vehDist6" speed="7.521194" pos="72.933189" lane="52578336#5_0" slope="0.000000"/>
    </timestep>
    <timestep time="58.00">
        <vehicle id="flow_0.0" x="13.314655" y="52.511671" angle="175.189540" type="vehDist71" speed="8.459874" pos="29.565623" lane="4490162#0_0" slope="0.000000"/>
        <vehicle id="flow_0.1" x="13.317939" y="52.512488" angle="265.062208" type="vehDist6" speed="7.728784" pos="80.661973" lane="52578336#5_0" slope="0.000000"/>
    </timestep>
    <timestep time="59.00">
        <vehicle id="flow_0.0" x="13.314646" y="52.511595" angle="185.668360" type="vehDist71" speed="8.459874" pos="38.025497" lane="4490162#0_0" slope="0.000000"/>
        <vehicle id="flow_0.1" x="13.317825" y="52.512480" angle="265.062208" type="vehDist6" speed="7.800016" pos="88.461989" lane="52578336#5_0" slope="0.000000"/>
    </timestep>
    <timestep time="60.00">
        <vehicle id="flow_0.0" x="13.314636" y="52.511519" angle="185.635908" type="vehDist71" speed="8.459874" pos="0.025371" lane="4490162#1_0" slope="0.000000"/>
        <vehicle id="flow_0.1" x="13.317711" y="52.512473" angle="265.062208" type="vehDist6" speed="7.823564" pos="96.285553" lane="52578336#5_0" slope="0.000000"/>
    </timestep>
    <timestep time="61.00">
        <vehicle id="flow_0.0" x="13.314626" y="52.511443" angle="186.724721" type="vehDist71" speed="8.459874" pos="3.555244" lane="4490162#2_0" slope="0.000000"/>
        <vehicle id="flow_0.1" x="13.317594" y="52.512465" angle="265.062208" type="vehDist6" speed="7.958468" pos="104.244022" lane="52578336#5_0" slope="0.000000"/>
    </timestep>
    <timestep time="62.00">
        <vehicle id="flow_0.0" x="13.314615" y="52.511368" angle="186.724721" type="vehDist71" speed="8.459874" pos="12.015118" lane="4490162#2_0" slope="0.000000"/>
        <vehicle id="flow_0.1" x="13.317486" y="52.512458" angle="265.062208" type="vehDist6" speed="7.361929" pos="111.605951" lane="52578336#5_0" slope="0.000000"/>
    </timestep>
    <timestep time="63.00">
        <vehicle id="flow_0.0" x="13.314603" y="52.511292" angle="186.697359" type="vehDist71" speed="8.459874" pos="1.794992" lane="4490162#4_0" slope="0.000000"/>
        <vehicle id="flow_0.1" x="13.317421" y="52.512453" angle="265.062208" type="vehDist6" speed="4.477278" pos="116.083229" lane="52578336#5_0" slope="0.000000"/>
    </timestep>
    <timestep time="64.00">
        <vehicle id="flow_0.0" x="13.314591" y="52.511216" angle="186.697359" type="vehDist71" speed="8.459874" pos="10.254865" lane="4490162#4_0" slope="0.000000"/>
        <vehicle id="flow_0.1" x="13.317398" y="52.512452" angle="265.062208" type="vehDist6" speed="1.552130" pos="117.635359" lane="52578336#5_0" slope="0.000000"/>
    </timestep>
    <timestep time="65.00">
        <vehicle id="flow_0.0" x="13.314580" y="52.511140" angle="186.697359" type="vehDist71" speed="8.459874" pos="18.714739" lane="4490162#4_0" slope="0.000000"/>
        <vehicle id="flow_0.1" x="13.317395" y="52.512452" angle="265.062208" type="vehDist6" speed="0.197594" pos="117.832952" lane="52578336#5_0" slope="0.000000"/>
    </timestep>
    <timestep time="66.00">
        <vehicle id="flow_0.0" x="13.314568" y="52.511065" angle="186.697359" type="vehDist71" speed="8.459874" pos="27.174613" lane="4490162#4_0" slope="0.000000"/>
        <vehicle id="flow_0.1" x="13.317395" y="52.512452" angle="265.062208" type="vehDist6" speed="0.011978" pos="117.844930" lane="52578336#5_0" slope="0.000000"/>
    </timestep>
    <timestep time="67.00">
        <vehicle id="flow_0.0" x="13.314557" y="52.510989" angle="186.697359" type="vehDist71" speed="8.459874" pos="35.634486" lane="4490162#4_0" slope="0.000000"/>
        <vehicle id="flow_0.1" x="13.317395" y="52.512452" angle="265.062208" type="vehDist6" speed="0.002803" pos="117.847733" lane="52578336#5_0" slope="0.000000"/>
    </timestep>
    <timestep time="68.00">
        <vehicle id="flow_0.0" x="13.314544" y="52.510913" angle="187.034778" type="vehDist71" speed="8.459874" pos="6.254360" lane="747453201_0" slope="0.000000"/>
        <vehicle id="flow_0.1" x="13.317395" y="52.512452" angle="265.062208" type="vehDist6" speed="0.001060" pos="117.848793" lane="52578336#5_0" slope="0.000000"/>
    </timestep>
    <timestep time="69.00">
        <vehicle id="flow_0.0" x="13.314532" y="52.510838" angle="187.034778" type="vehDist71" speed="8.459874" pos="14.714233" lane="747453201_0" slope="0.000000"/>
        <vehicle id="flow_0.1" x="13.317395" y="52.512452" angle="265.062208" type="vehDist6" speed="0.000150" pos="117.848944" lane="52578336#5_0" slope="0.000000"/>
    </timestep>
    <timestep time="70.00">
        <vehicle id="flow_0.0" x="13.314520" y="52.510762" angle="187.034778" type="vehDist71" speed="8.459874" pos="23.174107" lane="747453201_0" slope="0.000000"/>
        <vehicle id="flow_0.1" x="13.317395" y="52.512452" angle="265.062208" type="vehDist6" speed="0.000000" pos="117.848944" lane="52578336#5_0" slope="0.000000"/>
    </timestep>
    <timestep time="71.00">
        <vehicle id="flow_0.0" x="13.314507" y="52.510686" angle="186.941963" type="vehDist71" speed="8.459874" pos="7.213981" lane=":26704524_0_0" slope="0.000000"/>
        <vehicle id="flow_0.1" x="13.317395" y="52.512452" angle="265.062208" type="vehDist6" speed="0.000000" pos="117.848944" lane="52578336#5_0" slope="0.000000"/>
    </timestep>
    <timestep time="72.00">
        <vehicle id="flow_0.0" x="13.314495" y="52.510611" angle="186.901926" type="vehDist71" speed="8.459874" pos="0.533854" lane="37036260#0_0" slope="0.000000"/>
        <vehicle id="flow_0.1" x="13.317395" y="52.512452" angle="265.062208" type="vehDist6" speed="0.000000" pos="117.848944" lane="52578336#5_0" slope="0.000000"/>
    </timestep>
    <timestep time="73.00">
        <vehicle id="flow_0.0" x="13.314483" y="52.510535" angle="186.821981" type="vehDist71" speed="8.459874" pos="8.993728" lane="37036260#0_0" slope="0.000000"/>
        <vehicle id="flow_0.1" x="13.317395" y="52.512452" angle="265.062208" type="vehDist6" speed="0.000000" pos="117.848944" lane="52578336#5_0" slope="0.000000"/>
    </timestep>
    <timestep time="74.00">
        <vehicle id="flow_0.0" x="13.314471" y="52.510459" angle="186.764974" type="vehDist71" speed="8.459874" pos="17.453602" lane="37036260#0_0" slope="0.000000"/>
        <vehicle id="flow_0.1" x="13.317395" y="52.512452" angle="265.062208" type="vehDist6" speed="0.000000" pos="117.848944" lane="52578336#5_0" slope="0.000000"/>
    </timestep>
    <timestep time="75.00">
        <vehicle id="flow_0.0" x="13.314460" y="52.510384" angle="186.734369" type="vehDist71" speed="8.459874" pos="25.913475" lane="37036260#0_0" slope="0.000000"/>
        <vehicle id="flow_0.1" x="13.317395" y="52.512452" angle="265.062208" type="vehDist6" speed="0.000000" pos="117.848944" lane="52578336#5_0" slope="0.000000"/>
    </timestep>
    <timestep time="76.00">
        <vehicle id="flow_0.0" x="13.314448" y="52.510308" angle="186.734369" type="vehDist71" speed="8.459874" pos="34.373349" lane="37036260#0_0" slope="0.000000"/>
        <vehicle id="flow_0.1" x="13.317395" y="52.512452" angle="265.062208" type="vehDist6" speed="0.000000" pos="117.848944" lane="52578336#5_0" slope="0.000000"/>
    </timestep>
    <timestep time="77.00">
        <vehicle id="flow_0.0" x="13.314436" y="52.510232" angle="186.709837" type="vehDist71" speed="8.459874" pos="7.023223" lane="37036260#1_0" slope="0.000000"/>
        <vehicle id="flow_0.1" x="13.317395" y="52.512452" angle="265.062208" type="vehDist6" speed="0.000000" pos="117.848944" lane="52578336#5_0" slope="0.000000"/>
    </timestep>
    <timestep time="78.00">
        <vehicle id="flow_0.0" x="13.314425" y="52.510156" angle="186.709837" type="vehDist71" speed="8.459874" pos="15.483096" lane="37036260#1_0" slope="0.000000"/>
        <vehicle id="flow_0.1" x="13.317395" y="52.512452" angle="265.062208" type="vehDist6" speed="0.000000" pos="117.848944" lane="52578336#5_0" slope="0.000000"/>
    </timestep>
    <timestep time="79.00">
        <vehicle id="flow_0.1" x="13.317395" y="52.512452" angle="265.062208" type="vehDist6" speed="0.000000" pos="117.848944" lane="52578336#5_0" slope="0.000000"/>
    </timestep>
    <timestep time="80.00">
        <vehicle id="flow_0.1" x="13.317395" y="52.512452" angle="265.062208" type="vehDist6" speed="0.000000" pos="117.848944" lane="52578336#5_0" slope="0.000000"/>
        <vehicle id="flow_0.2" x="13.319096" y="52.512566" angle="265.062208" type="vehDist82" speed="0.000000" pos="1.700000" lane="52578336#5_0" slope="0.000000"/>
    </timestep>
    <timestep time="81.00">
        <vehicle id="flow_0.1" x="13.317395" y="52.512452" angle="265.062208" type="vehDist6" speed="0.000000" pos="117.848944" lane="52578336#5_0" slope="0.000000"/>
        <vehicle id="flow_0.2" x="13.319087" y="52.512565" angle="265.062208" type="vehDist82" speed="0.583648" pos="2.283648" lane="52578336#5_0" slope="0.000000"/>
    </timestep>
    <timestep time="82.00">
        <vehicle id="flow_0.1" x="13.317395" y="52.512452" angle="265.062208" type="vehDist6" speed="0.000000" pos="117.848944" lane="52578336#5_0" slope="0.000000"/>
        <vehicle id="flow_0.2" x="13.319072" y="52.512564" angle="265.062208" type="vehDist82" speed="1.067664" pos="3.351312" lane="52578336#5_0" slope="0.000000"/>
    </timestep>
    <timestep time="83.00">
        <vehicle id="flow_0.1" x="13.317395" y="52.512452" angle="265.062208" type="vehDist6" speed="0.000000" pos="117.848944" lane="52578336#5_0" slope="0.000000"/>
        <vehicle id="flow_0.2" x="13.319047" y="52.512562" angle="265.062208" type="vehDist82" speed="1.701489" pos="5.052802" lane="52578336#5_0" slope="0.000000"/>
    </timestep>
    <timestep time="84.00">
        <vehicle id="flow_0.1" x="13.317395" y="52.512452" angle="265.062208" type="vehDist6" speed="0.000000" pos="117.848944" lane="52578336#5_0" slope="0.000000"/>
        <vehicle id="flow_0.2" x="13.319016" y="52.512560" angle="265.062208" type="vehDist82" speed="2.080356" pos="7.133158" lane="52578336#5_0" slope="0.000000"/>
    </timestep>
    <timestep time="85.00">
        <vehicle id="flow_0.1" x="13.317395" y="52.512452" angle="265.062208" type="vehDist6" speed="0.000000" pos="117.848944" lane="52578336#5_0" slope="0.000000"/>
        <vehicle id="flow_0.2" x="13.318980" y="52.512558" angle="265.062208" type="vehDist82" speed="2.460233" pos="9.593391" lane="52578336#5_0" slope="0.000000"/>
    </timestep>
    <timestep time="86.00">
        <vehicle id="flow_0.1" x="13.317395" y="52.512452" angle="265.062208" type="vehDist6" speed="0.000000" pos="117.848944" lane="52578336#5_0" slope="0.000000"/>
        <vehicle id="flow_0.2" x="13.318938" y="52.512555" angle="265.062208" type="vehDist82" speed="2.886586" pos="12.479977" lane="52578336#5_0" slope="0.000000"/>
    </timestep>
    <timestep time="87.00">
        <vehicle id="flow_0.1" x="13.317395" y="52.512452" angle="265.062208" type="vehDist6" speed="0.000000" pos="117.848944" lane="52578336#5_0" slope="0.000000"/>
        <vehicle id="flow_0.2" x="13.318889" y="52.512552" angle="265.062208" type="vehDist82" speed="3.324154" pos="15.804131" lane="52578336#5_0" slope="0.000000"/>
    </timestep>
    <timestep time="88.00">
        <vehicle id="flow_0.1" x="13.317395" y="52.512452" angle="265.062208" type="vehDist6" speed="0.000000" pos="117.848944" lane="52578336#5_0" slope="0.000000"/>
        <vehicle id="flow_0.2" x="13.318833" y="52.512548" angle="265.062208" type="vehDist82" speed="3.816074" pos="19.620206" lane="52578336#5_0" slope="0.000000"/>
    </timestep>
    <timestep time="89.00">
        <vehicle id="flow_0.1" x="13.317395" y="52.512452" angle="265.062208" type="vehDist6" speed="0.000000" pos="117.848944" lane="52578336#5_0" slope="0.000000"/>
        <vehicle id="flow_0.2" x="13.318770" y="52.512544" angle="265.062208" type="vehDist82" speed="4.299431" pos="23.919637" lane="52578336#5_0" slope="0.000000"/>
    </timestep>
    <timestep time="90.00">
        <vehicle id="flow_0.1" x="13.317388" y="52.512451" angle="265.062208" type="vehDist6" speed="0.451268" pos="118.300212" lane="52578336#5_0" slope="0.000000"/>
        <vehicle id="flow_0.2" x="13.318701" y="52.512539" angle="265.062208" type="vehDist82" speed="4.762102" pos="28.681739" lane="52578336#5_0" slope="0.000000"/>
    </timestep>
    <timestep time="91.00">
        <vehicle id="flow_0.1" x="13.317375" y="52.512450" angle="265.138031" type="vehDist6" speed="0.912539" pos="0.362752" lane=":cluster_1254415600_26704482_4782446440_4782446441_4782446442_4782446443_5997739567_5997739568_628156652_628156655_1_0" slope="0.000000"/>
        <vehicle id="flow_0.2" x="13.318624" y="52.512534" angle="265.062208" type="vehDist82" speed="5.201093" pos="33.882832" lane="52578336#5_0" slope="0.000000"/>
    </timestep>
    <timestep time="92.00">
        <vehicle id="flow_0.1" x="13.317354" y="52.512449" angle="265.396687" type="vehDist6" speed="1.399970" pos="1.762722" lane=":cluster_1254415600_26704482_4782446440_4782446441_4782446442_4782446443_5997739567_5997739568_628156652_628156655_1_0" slope="0.000000"/>
        <vehicle id="flow_0.2" x="13.318543" y="52.512529" angle="265.062208" type="vehDist82" speed="5.552492" pos="39.435325" lane="52578336#5_0" slope="0.000000"/>
    </timestep>
    <timestep time="93.00">