<?xml version="1.0" encoding="UTF-8"?>

<!-- generated on 2022-09-29 19:39:28 by Eclipse SUMO sumo Version 1.14.1
<configuration xmlns:xsi="http://www.w3.org/2001/XMLSchema-instance" xsi:noNamespaceSchemaLocation="http://sumo.dlr.de/xsd/sumoConfiguration.xsd">

    <input>
        <net-file value="./example_scenario/warschauer/osm.net.xml"/>
        <route-files value="./example_scenario/warschauer/warschauer_new_params_fast.trips.xml"/>
    </input>

    <output>
        <fcd-output value="./example_scenario/warschauer/grid_search_results/fcd_out_2.00_1.00_1.00_15.xml"/>
        <fcd-output.geo value="true"/>
    </output>

    <time>
        <begin value="0"/>
        <end value="8000"/>
    </time>

    <fcd_device>
        <device.fcd.explicit value="vehDist"/>
    </fcd_device>

    <traci_server>
        <remote-port value="56757"/>
    </traci_server>

</configuration>
-->

<fcd-export xmlns:xsi="http://www.w3.org/2001/XMLSchema-instance" xsi:noNamespaceSchemaLocation="http://sumo.dlr.de/xsd/fcd_file.xsd">
    <timestep time="0.00">
        <vehicle id="flow_0.0" x="13.452876" y="52.512555" angle="16.91" type="vehDist71" speed="0.00" pos="1.70" lane="37287191#1_0" slope="0.00"/>
    </timestep>
    <timestep time="1.00">
        <vehicle id="flow_0.0" x="13.452878" y="52.512561" angle="16.91" type="vehDist71" speed="0.64" pos="2.34" lane="37287191#1_0" slope="0.00"/>
    </timestep>
    <timestep time="2.00">
        <vehicle id="flow_0.0" x="13.452884" y="52.512573" angle="16.91" type="vehDist71" speed="1.46" pos="3.80" lane="37287191#1_0" slope="0.00"/>
    </timestep>
    <timestep time="3.00">
        <vehicle id="flow_0.0" x="13.452892" y="52.512591" angle="16.91" type="vehDist71" speed="2.08" pos="5.88" lane="37287191#1_0" slope="0.00"/>
    </timestep>
    <timestep time="4.00">
        <vehicle id="flow_0.0" x="13.452904" y="52.512616" angle="16.91" type="vehDist71" speed="2.83" pos="8.72" lane="37287191#1_0" slope="0.00"/>
    </timestep>
    <timestep time="5.00">
        <vehicle id="flow_0.0" x="13.452918" y="52.512646" angle="16.91" type="vehDist71" speed="3.49" pos="12.21" lane="37287191#1_0" slope="0.00"/>
    </timestep>
    <timestep time="6.00">
        <vehicle id="flow_0.0" x="13.452934" y="52.512681" angle="16.91" type="vehDist71" speed="4.03" pos="16.24" lane="37287191#1_0" slope="0.00"/>
    </timestep>
    <timestep time="7.00">
        <vehicle id="flow_0.0" x="13.452952" y="52.512721" angle="16.91" type="vehDist71" speed="4.68" pos="20.92" lane="37287191#1_0" slope="0.00"/>
    </timestep>
    <timestep time="8.00">
        <vehicle id="flow_0.0" x="13.452974" y="52.512768" angle="16.91" type="vehDist71" speed="5.40" pos="26.33" lane="37287191#1_0" slope="0.00"/>
    </timestep>
    <timestep time="9.00">
        <vehicle id="flow_0.0" x="13.452998" y="52.512820" angle="16.91" type="vehDist71" speed="6.02" pos="32.35" lane="37287191#1_0" slope="0.00"/>
    </timestep>
    <timestep time="10.00">
        <vehicle id="flow_0.0" x="13.453024" y="52.512878" angle="16.91" type="vehDist71" speed="6.70" pos="39.05" lane="37287191#1_0" slope="0.00"/>
    </timestep>
    <timestep time="11.00">
        <vehicle id="flow_0.0" x="13.453055" y="52.512944" angle="16.91" type="vehDist71" speed="7.62" pos="46.67" lane="37287191#1_0" slope="0.00"/>
    </timestep>
    <timestep time="12.00">
        <vehicle id="flow_0.0" x="13.453088" y="52.513016" angle="16.91" type="vehDist71" speed="8.33" pos="55.00" lane="37287191#1_0" slope="0.00"/>
    </timestep>
    <timestep time="13.00">
        <vehicle id="flow_0.0" x="13.453124" y="52.513096" angle="16.91" type="vehDist71" speed="9.17" pos="64.16" lane="37287191#1_0" slope="0.00"/>
    </timestep>
    <timestep time="14.00">
        <vehicle id="flow_0.0" x="13.453161" y="52.513175" angle="16.91" type="vehDist71" speed="9.12" pos="73.28" lane="37287191#1_0" slope="0.00"/>
    </timestep>
    <timestep time="15.00">
        <vehicle id="flow_0.0" x="13.453197" y="52.513254" angle="16.91" type="vehDist71" speed="9.17" pos="82.45" lane="37287191#1_0" slope="0.00"/>
    </timestep>
    <timestep time="16.00">
        <vehicle id="flow_0.0" x="13.453232" y="52.513329" angle="16.91" type="vehDist71" speed="8.70" pos="91.15" lane="37287191#1_0" slope="0.00"/>
    </timestep>
    <timestep time="17.00">
        <vehicle id="flow_0.0" x="13.453268" y="52.513407" angle="16.91" type="vehDist71" speed="8.98" pos="100.13" lane="37287191#1_0" slope="0.00"/>
    </timestep>
    <timestep time="18.00">
        <vehicle id="flow_0.0" x="13.453303" y="52.513484" angle="16.91" type="vehDist71" speed="8.85" pos="108.99" lane="37287191#1_0" slope="0.00"/>
    </timestep>
    <timestep time="19.00">
        <vehicle id="flow_0.0" x="13.453338" y="52.513559" angle="16.91" type="vehDist71" speed="8.70" pos="117.69" lane="37287191#1_0" slope="0.00"/>
    </timestep>
    <timestep time="20.00">
        <vehicle id="flow_0.0" x="13.453374" y="52.513637" angle="16.91" type="vehDist71" speed="9.06" pos="126.75" lane="37287191#1_0" slope="0.00"/>
    </timestep>
    <timestep time="21.00">
        <vehicle id="flow_0.0" x="13.453410" y="52.513716" angle="16.91" type="vehDist71" speed="9.11" pos="135.86" lane="37287191#1_0" slope="0.00"/>
    </timestep>
    <timestep time="22.00">
        <vehicle id="flow_0.0" x="13.453445" y="52.513793" angle="16.91" type="vehDist71" speed="8.92" pos="144.79" lane="37287191#1_0" slope="0.00"/>
    </timestep>
    <timestep time="23.00">
        <vehicle id="flow_0.0" x="13.453482" y="52.513872" angle="16.91" type="vehDist71" speed="9.09" pos="153.87" lane="37287191#1_0" slope="0.00"/>
    </timestep>
    <timestep time="24.00">
        <vehicle id="flow_0.0" x="13.453518" y="52.513950" angle="16.91" type="vehDist71" speed="9.04" pos="162.91" lane="37287191#1_0" slope="0.00"/>
    </timestep>
    <timestep time="25.00">
        <vehicle id="flow_0.0" x="13.453553" y="52.514027" angle="16.91" type="vehDist71" speed="8.92" pos="171.83" lane="37287191#1_0" slope="0.00"/>
    </timestep>
    <timestep time="26.00">
        <vehicle id="flow_0.0" x="13.453589" y="52.514106" angle="16.65" type="vehDist71" speed="9.07" pos="2.29" lane="37287191#6_0" slope="0.00"/>
    </timestep>
    <timestep time="27.00">
        <vehicle id="flow_0.0" x="13.453625" y="52.514186" angle="16.65" type="vehDist71" speed="9.17" pos="11.46" lane="37287191#6_0" slope="0.00"/>
    </timestep>
    <timestep time="28.00">
        <vehicle id="flow_0.0" x="13.453660" y="52.514264" angle="16.65" type="vehDist71" speed="9.02" pos="20.49" lane="37287191#6_0" slope="0.00"/>
    </timestep>
    <timestep time="29.00">
        <vehicle id="flow_0.0" x="13.453695" y="52.514340" angle="16.65" type="vehDist71" speed="8.83" pos="29.32" lane="37287191#6_0" slope="0.00"/>
    </timestep>
    <timestep time="30.00">
        <vehicle id="flow_0.0" x="13.453730" y="52.514417" angle="16.93" type="vehDist71" speed="8.86" pos="1.23" lane="37287191#8_0" slope="0.00"/>
    </timestep>
    <timestep time="31.00">
        <vehicle id="flow_0.0" x="13.453766" y="52.514496" angle="16.87" type="vehDist71" speed="9.13" pos="10.36" lane="37287191#8_0" slope="0.00"/>
    </timestep>
    <timestep time="32.00">
        <vehicle id="flow_0.0" x="13.453802" y="52.514573" angle="16.87" type="vehDist71" speed="8.90" pos="19.26" lane="37287191#8_0" slope="0.00"/>
    </timestep>
    <timestep time="33.00">
        <vehicle id="flow_0.0" x="13.453838" y="52.514652" angle="16.87" type="vehDist71" speed="9.15" pos="28.42" lane="37287191#8_0" slope="0.00"/>
    </timestep>
    <timestep time="34.00">
        <vehicle id="flow_0.0" x="13.453874" y="52.514730" angle="16.87" type="vehDist71" speed="9.03" pos="37.45" lane="37287191#8_0" slope="0.00"/>
    </timestep>
    <timestep time="35.00">
        <vehicle id="flow_0.0" x="13.453910" y="52.514809" angle="16.87" type="vehDist71" speed="9.11" pos="46.56" lane="37287191#8_0" slope="0.00"/>
    </timestep>
    <timestep time="36.00">
        <vehicle id="flow_0.0" x="13.453946" y="52.514887" angle="16.87" type="vehDist71" speed="9.04" pos="55.60" lane="37287191#8_0" slope="0.00"/>
    </timestep>
    <timestep time="37.00">
        <vehicle id="flow_0.0" x="13.453981" y="52.514964" angle="16.87" type="vehDist71" speed="8.81" pos="64.41" lane="37287191#8_0" slope="0.00"/>
    </timestep>
    <timestep time="38.00">
        <vehicle id="flow_0.0" x="13.454017" y="52.515043" angle="16.87" type="vehDist71" speed="9.15" pos="73.57" lane="37287191#8_0" slope="0.00"/>
    </timestep>
    <timestep time="39.00">
        <vehicle id="flow_0.0" x="13.454053" y="52.515121" angle="16.87" type="vehDist71" speed="9.04" pos="82.61" lane="37287191#8_0" slope="0.00"/>
    </timestep>
    <timestep time="40.00">
        <vehicle id="flow_0.0" x="13.454109" y="52.515196" angle="23.34" type="vehDist71" speed="9.17" pos="7.16" lane=":2845478642_0_0" slope="0.00"/>
        <vehicle id="flow_0.1" x="13.452876" y="52.512555" angle="16.91" type="vehDist4" speed="0.00" pos="1.70" lane="37287191#1_0" slope="0.00"/>
    </timestep>
    <timestep time="41.00">
        <vehicle id="flow_0.0" x="13.454143" y="52.515273" angle="15.51" type="vehDist71" speed="8.85" pos="7.82" lane="440061671#0_0" slope="0.00"/>
        <vehicle id="flow_0.1" x="13.452879" y="52.512563" angle="16.91" type="vehDist4" speed="0.94" pos="2.64" lane="37287191#1_0" slope="0.00"/>
    </timestep>
    <timestep time="42.00">
        <vehicle id="flow_0.0" x="13.454176" y="52.515352" angle="15.51" type="vehDist71" speed="9.17" pos="16.91" lane="440061671#0_0" slope="0.00"/>
        <vehicle id="flow_0.1" x="13.452886" y="52.512578" angle="16.91" type="vehDist4" speed="1.67" pos="4.31" lane="37287191#1_0" slope="0.00"/>
    </timestep>
    <timestep time="43.00">
        <vehicle id="flow_0.0" x="13.454206" y="52.515425" angle="15.51" type="vehDist71" speed="7.61" pos="25.32" lane="440061671#0_0" slope="0.00"/>
        <vehicle id="flow_0.1" x="13.452896" y="52.512600" angle="16.91" type="vehDist4" speed="2.54" pos="6.85" lane="37287191#1_0" slope="0.00"/>
    </timestep>
    <timestep time="44.00">
        <vehicle id="flow_0.0" x="13.454231" y="52.515485" angle="15.51" type="vehDist71" speed="6.05" pos="32.16" lane="440061671#0_0" slope="0.00"/>
        <vehicle id="flow_0.1" x="13.452909" y="52.512628" angle="16.91" type="vehDist4" speed="3.32" pos="10.17" lane="37287191#1_0" slope="0.00"/>
    </timestep>
    <timestep time="45.00">
        <vehicle id="flow_0.0" x="13.454248" y="52.515524" angle="45.51" type="vehDist71" speed="4.49" pos="36.74" lane="440061671#0_0" slope="0.00"/>
        <vehicle id="flow_0.1" x="13.452927" y="52.512666" angle="16.91" type="vehDist4" speed="4.30" pos="14.47" lane="37287191#1_0" slope="0.00"/>
    </timestep>
    <timestep time="46.00">
        <vehicle id="flow_0.0" x="13.454258" y="52.515568" angle="0.51" type="vehDist71" speed="5.43" pos="3.93" lane=":junc_01_9_0" slope="0.00"/>
        <vehicle id="flow_0.1" x="13.452946" y="52.512708" angle="16.91" type="vehDist4" speed="4.84" pos="19.31" lane="37287191#1_0" slope="0.00"/>
    </timestep>
    <timestep time="47.00">
        <vehicle id="flow_0.0" x="13.454268" y="52.515620" angle="0.51" type="vehDist71" speed="6.37" pos="9.78" lane=":junc_01_9_0" slope="0.00"/>
        <vehicle id="flow_0.1" x="13.452968" y="52.512756" angle="16.91" type="vehDist4" speed="5.56" pos="24.87" lane="37287191#1_0" slope="0.00"/>
    </timestep>
    <timestep time="48.00">
        <vehicle id="flow_0.0" x="13.454276" y="52.515682" angle="0.51" type="vehDist71" speed="7.31" pos="16.70" lane=":junc_01_9_0" slope="0.00"/>
        <vehicle id="flow_0.1" x="13.452993" y="52.512809" angle="16.91" type="vehDist4" speed="6.18" pos="31.05" lane="37287191#1_0" slope="0.00"/>
    </timestep>
    <timestep time="49.00">
        <vehicle id="flow_0.0" x="13.454270" y="52.515742" angle="345.51" type="vehDist71" speed="6.25" pos="23.33" lane=":junc_01_9_0" slope="0.00"/>
        <vehicle id="flow_0.1" x="13.453020" y="52.512868" angle="16.91" type="vehDist4" speed="6.78" pos="37.83" lane="37287191#1_0" slope="0.00"/>
    </timestep>
    <timestep time="50.00">
        <vehicle id="flow_0.0" x="13.454264" y="52.515794" angle="345.51" type="vehDist71" speed="5.68" pos="29.17" lane=":junc_01_9_0" slope="0.00"/>
        <vehicle id="flow_0.1" x="13.453050" y="52.512934" angle="16.91" type="vehDist4" speed="7.63" pos="45.46" lane="37287191#1_0" slope="0.00"/>
    </timestep>
    <timestep time="51.00">
        <vehicle id="flow_0.0" x="13.454254" y="52.515838" angle="345.51" type="vehDist71" speed="4.12" pos="34.06" lane=":junc_01_9_0" slope="0.00"/>
        <vehicle id="flow_0.1" x="13.453081" y="52.513001" angle="16.91" type="vehDist4" speed="7.80" pos="53.26" lane="37287191#1_0" slope="0.00"/>
    </timestep>
    <timestep time="52.00">
        <vehicle id="flow_0.0" x="13.454246" y="52.515867" angle="330.51" type="vehDist71" speed="3.06" pos="37.42" lane=":junc_01_9_0" slope="0.00"/>
        <vehicle id="flow_0.1" x="13.453114" y="52.513072" angle="16.91" type="vehDist4" speed="8.17" pos="61.42" lane="37287191#1_0" slope="0.00"/>
    </timestep>
    <timestep time="53.00">
        <vehicle id="flow_0.0" x="13.454240" y="52.515888" angle="330.51" type="vehDist71" speed="2.00" pos="39.79" lane=":junc_01_9_0" slope="0.00"/>
        <vehicle id="flow_0.1" x="13.453144" y="52.513139" angle="16.91" type="vehDist4" speed="7.72" pos="69.14" lane="37287191#1_0" slope="0.00"/>
    </timestep>
    <timestep time="54.00">
        <vehicle id="flow_0.0" x="13.454237" y="52.515899" angle="300.51" type="vehDist71" speed="1.94" pos="41.03" lane=":junc_01_9_0" slope="0.00"/>
        <vehicle id="flow_0.1" x="13.453175" y="52.513206" angle="16.91" type="vehDist4" speed="7.75" pos="76.89" lane="37287191#1_0" slope="0.00"/>
    </timestep>
    <timestep time="55.00">
        <vehicle id="flow_0.0" x="13.454218" y="52.515908" angle="285.51" type="vehDist71" speed="0.88" pos="38.27" lane=":junc_01_1_0" slope="0.00"/>
        <vehicle id="flow_0.1" x="13.453206" y="52.513273" angle="16.91" type="vehDist4" speed="7.75" pos="84.64" lane="37287191#1_0" slope="0.00"/>
    </timestep>
    <timestep time="56.00">
        <vehicle id="flow_0.0" x="13.454208" y="52.515909" angle="240.51" type="vehDist71" speed="0.82" pos="38.93" lane=":junc_01_1_0" slope="0.00"/>
        <vehicle id="flow_0.1" x="13.453238" y="52.513342" angle="16.91" type="vehDist4" speed="7.96" pos="92.60" lane="37287191#1_0" slope="0.00"/>
    </timestep>
    <timestep time="57.00">
        <vehicle id="flow_0.0" x="13.454207" y="52.515909" angle="195.51" type="vehDist71" speed="0.76" pos="39.02" lane=":junc_01_1_0" slope="0.00"/>
        <vehicle id="flow_0.1" x="13.453270" y="52.513412" angle="16.91" type="vehDist4" speed="8.11" pos="100.71" lane="37287191#1_0" slope="0.00"/>
    </timestep>
    <timestep time="58.00">
        <vehicle id="flow_0.0" x="13.454214" y="52.515909" angle="150.51" type="vehDist71" speed="0.70" pos="38.56" lane=":junc_01_1_0" slope="0.00"/>
        <vehicle id="flow_0.1" x="13.453302" y="52.513482" angle="16.91" type="vehDist4" speed="8.07" pos="108.79" lane="37287191#1_0" slope="0.00"/>
    </timestep>
    <timestep time="59.00">
        <vehicle id="flow_0.0" x="13.454218" y="52.515908" angle="165.51" type="vehDist71" speed="0.64" pos="38.29" lane=":junc_01_1_0" slope="0.00"/>
        <vehicle id="flow_0.1" x="13.453334" y="52.513551" angle="16.91" type="vehDist4" speed="8.01" pos="116.79" lane="37287191#1_0" slope="0.00"/>
    </timestep>
    <timestep time="60.00">
        <vehicle id="flow_0.0" x="13.454217" y="52.515909" angle="195.51" type="vehDist71" speed="0.57" pos="38.35" lane=":junc_01_1_0" slope="0.00"/>
        <vehicle id="flow_0.1" x="13.453365" y="52.513619" angle="16.91" type="vehDist4" speed="7.89" pos="124.69" lane="37287191#1_0" slope="0.00"/>
    </timestep>
    <timestep time="61.00">
        <vehicle id="flow_0.0" x="13.454216" y="52.515909" angle="195.51" type="vehDist71" speed="0.51" pos="38.41" lane=":junc_01_1_0" slope="0.00"/>
        <vehicle id="flow_0.1" x="13.453397" y="52.513689" angle="16.91" type="vehDist4" speed="8.00" pos="132.69" lane="37287191#1_0" slope="0.00"/>
    </timestep>
    <timestep time="62.00">
        <vehicle id="flow_0.0" x="13.454218" y="52.515909" angle="180.51" type="vehDist71" speed="0.95" pos="38.29" lane=":junc_01_1_0" slope="0.00"/>
        <vehicle id="flow_0.1" x="13.453429" y="52.513757" angle="16.91" type="vehDist4" speed="7.92" pos="140.61" lane="37287191#1_0" slope="0.00"/>
    </timestep>
    <timestep time="63.00">
        <vehicle id="flow_0.0" x="13.454221" y="52.515908" angle="180.51" type="vehDist71" speed="1.89" pos="38.07" lane=":junc_01_1_0" slope="0.00"/>
        <vehicle id="flow_0.1" x="13.453460" y="52.513824" angle="16.91" type="vehDist4" speed="7.74" pos="148.36" lane="37287191#1_0" slope="0.00"/>
    </timestep>
    <timestep time="64.00">
        <vehicle id="flow_0.0" x="13.454209" y="52.515909" angle="225.51" type="vehDist71" speed="0.83" pos="38.87" lane=":junc_01_1_0" slope="0.00"/>
        <vehicle id="flow_0.1" x="13.453491" y="52.513893" angle="16.91" type="vehDist4" speed="7.89" pos="156.25" lane="37287191#1_0" slope="0.00"/>
    </timestep>
    <timestep time="65.00">
        <vehicle id="flow_0.0" x="13.454211" y="52.515909" angle="180.51" type="vehDist71" speed="0.77" pos="38.74" lane=":junc_01_1_0" slope="0.00"/>
        <vehicle id="flow_0.1" x="13.453522" y="52.513960" angle="16.91" type="vehDist4" speed="7.81" pos="164.06" lane="37287191#1_0" slope="0.00"/>
    </timestep>
    <timestep time="66.00">
        <vehicle id="flow_0.0" x="13.454218" y="52.515908" angle="150.51" type="vehDist71" speed="0.71" pos="38.27" lane=":junc_01_1_0" slope="0.00"/>
        <vehicle id="flow_0.1" x="13.453554" y="52.514030" angle="16.91" type="vehDist4" speed="8.06" pos="172.12" lane="37287191#1_0" slope="0.00"/>
    </timestep>
    <timestep time="67.00">
        <vehicle id="flow_0.0" x="13.454217" y="52.515909" angle="195.51" type="vehDist71" speed="0.65" pos="38.35" lane=":junc_01_1_0" slope="0.00"/>
        <vehicle id="flow_0.1" x="13.453586" y="52.514098" angle="16.68" type="vehDist4" speed="7.88" pos="1.40" lane="37287191#6_0" slope="0.00"/>
    </timestep>
    <timestep time="68.00">
        <vehicle id="flow_0.0" x="13.454216" y="52.515909" angle="195.51" type="vehDist71" speed="0.59" pos="38.41" lane=":junc_01_1_0" slope="0.00"/>
        <vehicle id="flow_0.1" x="13.453616" y="52.514166" angle="16.65" type="vehDist4" speed="7.83" pos="9.23" lane="37287191#6_0" slope="0.00"/>
    </timestep>
    <timestep time="69.00">
        <vehicle id="flow_0.0" x="13.454217" y="52.515909" angle="180.51" type="vehDist71" speed="0.53" pos="38.32" lane=":junc_01_1_0" slope="0.00"/>
        <vehicle id="flow_0.1" x="13.453646" y="52.514233" angle="16.65" type="vehDist4" speed="7.69" pos="16.92" lane="37287191#6_0" slope="0.00"/>
    </timestep>
    <timestep time="70.00">
        <vehicle id="flow_0.0" x="13.454217" y="52.515909" angle="195.51" type="vehDist71" speed="0.46" pos="38.37" lane=":junc_01_1_0" slope="0.00"/>
        <vehicle id="flow_0.1" x="13.453678" y="52.514302" angle="16.65" type="vehDist4" speed="8.02" pos="24.94" lane="37287191#6_0" slope="0.00"/>
    </timestep>
    <timestep time="71.00">
        <vehicle id="flow_0.0" x="13.454216" y="52.515909" angle="195.51" type="vehDist71" speed="0.90" pos="38.44" lane=":junc_01_1_0" slope="0.00"/>
        <vehicle id="flow_0.1" x="13.453708" y="52.514370" angle="16.65" type="vehDist4" speed="7.78" pos="32.72" lane="37287191#6_0" slope="0.00"/>
    </timestep>
    <timestep time="72.00">
        <vehicle id="flow_0.0" x="13.454219" y="52.515908" angle="180.51" type="vehDist71" speed="1.84" pos="38.23" lane=":junc_01_1_0" slope="0.00"/>
        <vehicle id="flow_0.1" x="13.453741" y="52.514440" angle="16.87" type="vehDist4" speed="8.13" pos="3.90" lane="37287191#8_0" slope="0.00"/>
    </timestep>
    <timestep time="73.00">
        <vehicle id="flow_0.0" x="13.454212" y="52.515909" angle="210.51" type="vehDist71" speed="0.78" pos="38.70" lane=":junc_01_1_0" slope="0.00"/>
        <vehicle id="flow_0.1" x="13.453771" y="52.514507" angle="16.87" type="vehDist4" speed="7.74" pos="11.64" lane="37287191#8_0" slope="0.00"/>
    </timestep>
    <timestep time="74.00">
        <vehicle id="flow_0.0" x="13.454216" y="52.515909" angle="165.51" type="vehDist71" speed="0.72" pos="38.39" lane=":junc_01_1_0" slope="0.00"/>
        <vehicle id="flow_0.1" x="13.453802" y="52.514574" angle="16.87" type="vehDist4" speed="7.78" pos="19.42" lane="37287191#8_0" slope="0.00"/>
    </timestep>
    <timestep time="75.00">
        <vehicle id="flow_0.0" x="13.454219" y="52.515908" angle="180.51" type="vehDist71" speed="1.66" pos="38.20" lane=":junc_01_1_0" slope="0.00"/>
        <vehicle id="flow_0.1" x="13.453833" y="52.514642" angle="16.87" type="vehDist4" speed="7.83" pos="27.25" lane="37287191#8_0" slope="0.00"/>
    </timestep>
    <timestep time="76.00">
        <vehicle id="flow_0.0" x="13.454213" y="52.515909" angle="210.51" type="vehDist71" speed="0.60" pos="38.61" lane=":junc_01_1_0" slope="0.00"/>
        <vehicle id="flow_0.1" x="13.453865" y="52.514710" angle="16.87" type="vehDist4" speed="7.87" pos="35.12" lane="37287191#8_0" slope="0.00"/>
    </timestep>
    <timestep time="77.00">
        <vehicle id="flow_0.0" x="13.454217" y="52.515909" angle="165.51" type="vehDist71" speed="0.54" pos="38.38" lane=":junc_01_1_0" slope="0.00"/>
        <vehicle id="flow_0.1" x="13.453896" y="52.514778" angle="16.87" type="vehDist4" speed="7.79" pos="42.91" lane="37287191#8_0" slope="0.00"/>
    </timestep>
    <timestep time="78.00">
        <vehicle id="flow_0.0" x="13.454216" y="52.515909" angle="195.51" type="vehDist71" speed="0.48" pos="38.43" lane=":junc_01_1_0" slope="0.00"/>
        <vehicle id="flow_0.1" x="13.453928" y="52.514848" angle="16.87" type="vehDist4" speed="8.15" pos="51.06" lane="37287191#8_0" slope="0.00"/>
    </timestep>
    <timestep time="79.00">
        <vehicle id="flow_0.0" x="13.454217" y="52.515909" angle="180.51" type="vehDist71" speed="0.92" pos="38.32" lane=":junc_01_1_0" slope="0.00"/>
        <vehicle id="flow_0.1" x="13.453960" y="52.514918" angle="16.87" type="vehDist4" speed="8.04" pos="59.09" lane="37287191#8_0" slope="0.00"/>
    </timestep>
    <timestep time="80.00">
        <vehicle id="flow_0.0" x="13.454221" y="52.515908" angle="180.51" type="vehDist71" speed="1.85" pos="38.10" lane=":junc_01_1_0" slope="0.00"/>
        <vehicle id="flow_0.1" x="13.453991" y="52.514986" angle="16.87" type="vehDist4" speed="7.91" pos="67.00" lane="37287191#8_0" slope="0.00"/>
        <vehicle id="flow_0.2" x="13.452876" y="52.512555" angle="16.91" type="vehDist49" speed="0.00" pos="1.70" lane="37287191#1_0" slope="0.00"/>
    </timestep>
    <timestep time="81.00">
        <vehicle id="flow_0.0" x="13.454214" y="52.515909" angle="210.51" type="vehDist71" speed="0.79" pos="38.58" lane=":junc_01_1_0" slope="0.00"/>
        <vehicle id="flow_0.1" x="13.454023" y="52.515056" angle="16.87" type="vehDist4" speed="8.06" pos="75.07" lane="37287191#8_0" slope="0.00"/>
        <vehicle id="flow_0.2" x="13.452878" y="52.512561" angle="16.91" type="vehDist49" speed="0.68" pos="2.38" lane="37287191#1_0" slope="0.00"/>
    </timestep>
    <timestep time="82.00">
        <vehicle id="flow_0.0" x="13.454218" y="52.515908" angle="165.51" type="vehDist71" speed="0.73" pos="38.26" lane=":junc_01_1_0" slope="0.00"/>
        <vehicle id="flow_0.1" x="13.454055" y="52.515126" angle="16.87" type="vehDist4" speed="8.06" pos="83.12" lane="37287191#8_0" slope="0.00"/>
        <vehicle id="flow_0.2" x="13.452883" y="52.512571" angle="16.91" type="vehDist49" speed="1.17" pos="3.55" lane="37287191#1_0" slope="0.00"/>
    </timestep>
    <timestep time="83.00">
        <vehicle id="flow_0.0" x="13.454221" y="52.515908" angle="180.51" type="vehDist71" speed="1.67" pos="38.08" lane=":junc_01_1_0" slope="0.00"/>
        <vehicle id="flow_0.1" x="13.454105" y="52.515189" angle="30.04" type="vehDist4" speed="7.85" pos="6.35" lane=":2845478642_0_0" slope="0.00"/>
        <vehicle id="flow_0.2" x="13.452890" y="52.512586" angle="16.91" type="vehDist49" speed="1.71" pos="5.26" lane="37287191#1_0" slope="0.00"/>
    </timestep>
    <timestep time="84.00">
        <vehicle id="flow_0.0" x="13.454211" y="52.515909" angle="225.51" type="vehDist71" speed="0.61" pos="38.75" lane=":junc_01_1_0" slope="0.00"/>
        <vehicle id="flow_0.1" x="13.454136" y="52.515256" angle="15.51" type="vehDist4" speed="7.74" pos="5.91" lane="440061671#0_0" slope="0.00"/>
        <vehicle id="flow_0.2" x="13.452899" y="52.512606" angle="16.91" type="vehDist49" speed="2.33" pos="7.59" lane="37287191#1_0" slope="0.00"/>
    </timestep>
    <timestep time="85.00">
        <vehicle id="flow_0.0" x="13.454213" y="52.515909" angle="180.51" type="vehDist71" speed="1.05" pos="38.61" lane=":junc_01_1_0" slope="0.00"/>
        <vehicle id="flow_0.1" x="13.454133" y="52.515327" angle="0.51" type="vehDist4" speed="7.86" pos="13.44" lane="440061671#0_1" slope="0.00"/>
        <vehicle id="flow_0.2" x="13.452910" y="52.512630" angle="16.91" type="vehDist49" speed="2.81" pos="10.40" lane="37287191#1_0" slope="0.00"/>
    </timestep>
    <timestep time="86.00">
        <vehicle id="flow_0.0" x="13.454222" y="52.515908" angle="165.51" type="vehDist71" speed="1.99" pos="38.00" lane=":junc_01_1_0" slope="0.00"/>
        <vehicle id="flow_0.1" x="13.454070" y="52.515407" angle="0.51" type="vehDist4" speed="6.97" pos="21.01" lane="440061671#0_3" slope="0.00"/>
        <vehicle id="flow_0.2" x="13.452924" y="52.512659" angle="16.91" type="vehDist49" speed="3.31" pos="13.70" lane="37287191#1_0" slope="0.00"/>
    </timestep>
    <timestep time="87.00">
        <vehicle id="flow_0.0" x="13.454216" y="52.515909" angle="210.51" type="vehDist71" speed="0.43" pos="38.43" lane=":junc_01_1_0" slope="0.00"/>
        <vehicle id="flow_0.1" x="13.454096" y="52.515471" angle="30.51" type="vehDist4" speed="6.08" pos="28.26" lane="440061671#0_3" slope="0.00"/>
        <vehicle id="flow_0.2" x="13.452939" y="52.512692" angle="16.91" type="vehDist49" speed="3.87" pos="17.57" lane="37287191#1_0" slope="0.00"/>
    </timestep>
    <timestep time="88.00">
        <vehicle id="flow_0.0" x="13.454217" y="52.515909" angle="180.51" type="vehDist71" speed="0.87" pos="38.33" lane=":junc_01_1_0" slope="0.00"/>
        <vehicle id="flow_0.1" x="13.454120" y="52.515527" angle="30.51" type="vehDist4" speed="5.19" pos="34.66" lane="440061671#0_3" slope="0.00"/>
        <vehicle id="flow_0.2" x="13.452957" y="52.512732" angle="16.91" type="vehDist49" speed="4.56" pos="22.13" lane="37287191#1_0" slope="0.00"/>
    </timestep>
    <timestep time="89.00">
        <vehicle id="flow_0.0" x="13.454220" y="52.515908" angle="180.51" type="vehDist71" speed="1.81" pos="38.12" lane=":junc_01_1_0" slope="0.00"/>
        <vehicle id="flow_0.1" x="13.454108" y="52.515580" angle="345.51" type="vehDist4" speed="0.00" pos="3.32" lane=":junc_01_14_0" slope="0.00"/>
        <vehicle id="flow_0.2" x="13.452978" y="52.512777" angle="16.91" type="vehDist49" speed="5.25" pos="27.38" lane="37287191#1_0" slope="0.00"/>
    </timestep>
    <timestep time="90.00">
        <vehicle id="flow_0.0" x="13.454214" y="52.515909" angle="210.51" type="vehDist71" speed="0.74" pos="38.57" lane=":junc_01_1_0" slope="0.00"/>
        <vehicle id="flow_0.1" x="13.454105" y="52.515584" angle="345.51" type="vehDist4" speed="1.01" pos="3.86" lane=":junc_01_14_0" slope="0.00"/>
        <vehicle id="flow_0.2" x="13.453001" y="52.512827" angle="16.91" type="vehDist49" speed="5.76" pos="33.14" lane="37287191#1_0" slope="0.00"/>
    </timestep>
    <timestep time="91.00">
        <vehicle id="flow_0.0" x="13.454214" y="52.515909" angle="165.51" type="vehDist71" speed="0.00" pos="38.57" lane=":junc_01_1_0" slope="0.00"/>
        <vehicle id="flow_0.1" x="13.454094" y="52.515597" angle="330.51" type="vehDist4" speed="2.02" pos="5.43" lane=":junc_01_14_0" slope="0.00"/>
        <vehicle id="flow_0.2" x="13.453026" y="52.512883" angle="16.91" type="vehDist49" speed="6.41" pos="39.55" lane="37287191#1_0" slope="0.00"/>
    </timestep>
    <timestep time="92.00">
        <vehicle id="flow_0.0" x="13.454217" y="52.515909" angle="165.51" type="vehDist71" speed="0.94" pos="38.38" lane=":junc_01_1_0" slope="0.00"/>
        <vehicle id="flow_0.1" x="13.454077" y="52.515617" angle="330.51" type="vehDist4" speed="3.03" pos="8.00" lane=":junc_01_14_0" slope="0.00"/>
        <vehicle id="flow_0.2" x="13.453054" y="52.512942" angle="16.91" type="vehDist49" speed="6.89" pos="46.45" lane="37287191#1_0" slope="0.00"/>
    </timestep>
    <timestep time="93.00">
        <vehicle id="flow_0.0" x="13.454209" y="52.515909" angle="210.51" type="vehDist71" speed="1.88" pos="38.88" lane=":junc_01_1_0" slope="0.00"/>
        <vehicle id="flow_0.1" x="13.454045" y="52.515644" angle="315.51" type="vehDist4" speed="4.04" pos="11.67" lane=":junc_01_14_0" slope="0.00"/>
        <vehicle id="flow_0.2" x="13.453083" y="52.513006" angle="16.91" type="vehDist49" speed="7.36" pos="53.80" lane="37287191#1_0" slope="0.00"/>
    </timestep>
    <timestep time="94.00">
        <vehicle id="flow_0.0" x="13.454178" y="52.515912" angle="255.51" type="vehDist71" speed="2.82" pos="41.03" lane=":junc_01_1_0" slope="0.00"/>
        <vehicle id="flow_0.1" x="13.453997" y="52.515673" angle="315.51" type="vehDist4" speed="5.05" pos="16.27" lane=":junc_01_14_0" slope="0.00"/>
        <vehicle id="flow_0.2" x="13.453113" y="52.513071" angle="16.91" type="vehDist49" speed="7.54" pos="61.35" lane="37287191#1_0" slope="0.00"/>
    </timestep>
    <timestep time="95.00">