<?xml version="1.0" encoding="UTF-8"?>

<!-- generated on Fri Nov 26 11:22:48 2021 by Eclipse SUMO sumo Version v1_7_0+1228-0b1a97d77e
<configuration xmlns:xsi="http://www.w3.org/2001/XMLSchema-instance" xsi:noNamespaceSchemaLocation="http://sumo.dlr.de/xsd/sumoConfiguration.xsd">

    <input>
        <net-file value="osm.net.xml"/>
        <route-files value="bismarck.trips.xml"/>
    </input>

    <output>
        <fcd-output value="fcd_out.xml"/>
        <fcd-output.geo value="true"/>
    </output>

    <time>
        <begin value="0"/>
        <end value="8000"/>
    </time>

    <fcd_device>
        <device.fcd.explicit value="vehDist"/>
    </fcd_device>

</configuration>
-->

<fcd-export xmlns:xsi="http://www.w3.org/2001/XMLSchema-instance" xsi:noNamespaceSchemaLocation="http://sumo.dlr.de/xsd/fcd_file.xsd">
    <timestep time="0.00">
        <vehicle id="flow_0.0" x="13.319096" y="52.512566" angle="265.062208" type="vehDist71" speed="0.000000" pos="1.700000" lane="52578336#5_0" slope="0.000000"/>
    </timestep>
    <timestep time="1.00">
        <vehicle id="flow_0.0" x="13.319085" y="52.512565" angle="265.062208" type="vehDist71" speed="0.765925" pos="2.465925" lane="52578336#5_0" slope="0.000000"/>
    </timestep>
    <timestep time="2.00">
        <vehicle id="flow_0.0" x="13.319064" y="52.512564" angle="265.062208" type="vehDist71" speed="1.413508" pos="3.879434" lane="52578336#5_0" slope="0.000000"/>
    </timestep>
    <timestep time="3.00">
        <vehicle id="flow_0.0" x="13.319036" y="52.512562" angle="265.062208" type="vehDist71" speed="1.909870" pos="5.789303" lane="52578336#5_0" slope="0.000000"/>
    </timestep>
    <timestep time="4.00">
        <vehicle id="flow_0.0" x="13.319000" y="52.512559" angle="265.062208" type="vehDist71" speed="2.424782" pos="8.214085" lane="52578336#5_0" slope="0.000000"/>
    </timestep>
    <timestep time="5.00">
        <vehicle id="flow_0.0" x="13.318957" y="52.512556" angle="265.062208" type="vehDist71" speed="2.929955" pos="11.144040" lane="52578336#5_0" slope="0.000000"/>
    </timestep>
    <timestep time="6.00">
        <vehicle id="flow_0.0" x="13.318909" y="52.512553" angle="265.062208" type="vehDist71" speed="3.333769" pos="14.477809" lane="52578336#5_0" slope="0.000000"/>
    </timestep>
    <timestep time="7.00">
        <vehicle id="flow_0.0" x="13.318850" y="52.512549" angle="265.062208" type="vehDist71" speed="3.985858" pos="18.463667" lane="52578336#5_0" slope="0.000000"/>
    </timestep>
    <timestep time="8.00">
        <vehicle id="flow_0.0" x="13.318785" y="52.512545" angle="265.062208" type="vehDist71" speed="4.454571" pos="22.918238" lane="52578336#5_0" slope="0.000000"/>
    </timestep>
    <timestep time="9.00">
        <vehicle id="flow_0.0" x="13.318709" y="52.512540" angle="265.062208" type="vehDist71" speed="5.192145" pos="28.110383" lane="52578336#5_0" slope="0.000000"/>
    </timestep>
    <timestep time="10.00">
        <vehicle id="flow_0.0" x="13.318626" y="52.512534" angle="265.062208" type="vehDist71" speed="5.699812" pos="33.810195" lane="52578336#5_0" slope="0.000000"/>
    </timestep>
    <timestep time="11.00">
        <vehicle id="flow_0.0" x="13.318533" y="52.512528" angle="265.062208" type="vehDist71" speed="6.294020" pos="40.104215" lane="52578336#5_0" slope="0.000000"/>
    </timestep>
    <timestep time="12.00">
        <vehicle id="flow_0.0" x="13.318434" y="52.512521" angle="265.062208" type="vehDist71" speed="6.763950" pos="46.868164" lane="52578336#5_0" slope="0.000000"/>
    </timestep>
    <timestep time="13.00">
        <vehicle id="flow_0.0" x="13.318326" y="52.512514" angle="265.062208" type="vehDist71" speed="7.420430" pos="54.288594" lane="52578336#5_0" slope="0.000000"/>
    </timestep>
    <timestep time="14.00">
        <vehicle id="flow_0.0" x="13.318210" y="52.512506" angle="265.062208" type="vehDist71" speed="7.871914" pos="62.160509" lane="52578336#5_0" slope="0.000000"/>
    </timestep>
    <timestep time="15.00">
        <vehicle id="flow_0.0" x="13.318086" y="52.512498" angle="265.062208" type="vehDist71" speed="8.460533" pos="70.621042" lane="52578336#5_0" slope="0.000000"/>
    </timestep>
    <timestep time="16.00">
        <vehicle id="flow_0.0" x="13.317955" y="52.512489" angle="265.062208" type="vehDist71" speed="8.965603" pos="79.586645" lane="52578336#5_0" slope="0.000000"/>
    </timestep>
    <timestep time="17.00">
        <vehicle id="flow_0.0" x="13.317815" y="52.512480" angle="265.062208" type="vehDist71" speed="9.599733" pos="89.186378" lane="52578336#5_0" slope="0.000000"/>
    </timestep>
    <timestep time="18.00">
        <vehicle id="flow_0.0" x="13.317672" y="52.512470" angle="265.062208" type="vehDist71" speed="9.712301" pos="98.898679" lane="52578336#5_0" slope="0.000000"/>
    </timestep>
    <timestep time="19.00">
        <vehicle id="flow_0.0" x="13.317532" y="52.512461" angle="265.062208" type="vehDist71" speed="9.602085" pos="108.500764" lane="52578336#5_0" slope="0.000000"/>
    </timestep>
    <timestep time="20.00">
        <vehicle id="flow_0.0" x="13.317389" y="52.512451" angle="265.062208" type="vehDist71" speed="9.714486" pos="118.215250" lane="52578336#5_0" slope="0.000000"/>
    </timestep>
    <timestep time="21.00">
        <vehicle id="flow_0.0" x="13.317245" y="52.512442" angle="265.396687" type="vehDist71" speed="9.879790" pos="9.245040" lane=":cluster_1254415600_26704482_4782446440_4782446441_4782446442_4782446443_5997739567_5997739568_628156652_628156655_1_0" slope="0.000000"/>
    </timestep>
    <timestep time="22.00">
        <vehicle id="flow_0.0" x="13.317104" y="52.512433" angle="265.396687" type="vehDist71" speed="9.614002" pos="18.859043" lane=":cluster_1254415600_26704482_4782446440_4782446441_4782446442_4782446443_5997739567_5997739568_628156652_628156655_1_0" slope="0.000000"/>
    </timestep>
    <timestep time="23.00">
        <vehicle id="flow_0.0" x="13.316960" y="52.512424" angle="265.396687" type="vehDist71" speed="9.849057" pos="28.708100" lane=":cluster_1254415600_26704482_4782446440_4782446441_4782446442_4782446443_5997739567_5997739568_628156652_628156655_1_0" slope="0.000000"/>
    </timestep>
    <timestep time="24.00">
        <vehicle id="flow_0.0" x="13.316819" y="52.512415" angle="265.140048" type="vehDist71" speed="9.623523" pos="5.681622" lane="109612315#0_0" slope="0.000000"/>
    </timestep>
    <timestep time="25.00">
        <vehicle id="flow_0.0" x="13.316677" y="52.512405" angle="265.140048" type="vehDist71" speed="9.657625" pos="15.339247" lane="109612315#0_0" slope="0.000000"/>
    </timestep>
    <timestep time="26.00">
        <vehicle id="flow_0.0" x="13.316536" y="52.512396" angle="265.140048" type="vehDist71" speed="9.591787" pos="24.931035" lane="109612315#0_0" slope="0.000000"/>
    </timestep>
    <timestep time="27.00">
        <vehicle id="flow_0.0" x="13.316391" y="52.512386" angle="265.140048" type="vehDist71" speed="9.912101" pos="34.843136" lane="109612315#0_0" slope="0.000000"/>
    </timestep>
    <timestep time="28.00">
        <vehicle id="flow_0.0" x="13.316247" y="52.512377" angle="265.140048" type="vehDist71" speed="9.854971" pos="44.698107" lane="109612315#0_0" slope="0.000000"/>
    </timestep>
    <timestep time="29.00">
        <vehicle id="flow_0.0" x="13.316103" y="52.512367" angle="264.907885" type="vehDist71" speed="9.823413" pos="54.521520" lane="109612315#0_0" slope="0.000000"/>
    </timestep>
    <timestep time="30.00">
        <vehicle id="flow_0.0" x="13.315959" y="52.512357" angle="264.907885" type="vehDist71" speed="9.861402" pos="64.382922" lane="109612315#0_0" slope="0.000000"/>
    </timestep>
    <timestep time="31.00">
        <vehicle id="flow_0.0" x="13.315816" y="52.512347" angle="265.178029" type="vehDist71" speed="9.750365" pos="2.333287" lane="109612315#2_0" slope="0.000000"/>
    </timestep>
    <timestep time="32.00">
        <vehicle id="flow_0.0" x="13.315678" y="52.512338" angle="265.189540" type="vehDist71" speed="9.556369" pos="6.089656" lane="109612315#3_0" slope="0.000000"/>
    </timestep>
    <timestep time="33.00">
        <vehicle id="flow_0.0" x="13.315533" y="52.512329" angle="265.189540" type="vehDist71" speed="9.909528" pos="15.999185" lane="109612315#3_0" slope="0.000000"/>
    </timestep>
    <timestep time="34.00">
        <vehicle id="flow_0.0" x="13.315389" y="52.512319" angle="265.189540" type="vehDist71" speed="9.894312" pos="25.893497" lane="109612315#3_0" slope="0.000000"/>
    </timestep>
    <timestep time="35.00">
        <vehicle id="flow_0.0" x="13.315244" y="52.512310" angle="265.189540" type="vehDist71" speed="9.889307" pos="35.782804" lane="109612315#3_0" slope="0.000000"/>
    </timestep>
    <timestep time="36.00">
        <vehicle id="flow_0.0" x="13.315100" y="52.512299" angle="259.323812" type="vehDist71" speed="9.908236" pos="0.811040" lane=":junc_01_10_0" slope="0.000000"/>
    </timestep>
    <timestep time="37.00">
        <vehicle id="flow_0.0" x="13.314971" y="52.512274" angle="253.638061" type="vehDist71" speed="9.209289" pos="10.020329" lane=":junc_01_10_0" slope="0.000000"/>
    </timestep>
    <timestep time="38.00">
        <vehicle id="flow_0.0" x="13.314895" y="52.512239" angle="228.090536" type="vehDist71" speed="6.512611" pos="16.532940" lane=":junc_01_10_0" slope="0.000000"/>
    </timestep>
    <timestep time="39.00">
        <vehicle id="flow_0.0" x="13.314820" y="52.512194" angle="222.321304" type="vehDist71" speed="7.235574" pos="2.738514" lane=":junc_01_39_0" slope="0.000000"/>
    </timestep>
    <timestep time="40.00">
        <vehicle id="flow_0.0" x="13.314770" y="52.512129" angle="206.264683" type="vehDist71" speed="7.962969" pos="10.701483" lane=":junc_01_39_0" slope="0.000000"/>
        <vehicle id="flow_0.1" x="13.319096" y="52.512566" angle="265.062208" type="vehDist6" speed="0.000000" pos="1.700000" lane="52578336#5_0" slope="0.000000"/>
    </timestep>
    <timestep time="41.00">
        <vehicle id="flow_0.0" x="13.314729" y="52.512058" angle="191.593019" type="vehDist71" speed="8.412289" pos="19.113772" lane=":junc_01_39_0" slope="0.000000"/>
        <vehicle id="flow_0.1" x="13.319086" y="52.512565" angle="265.062208" type="vehDist6" speed="0.635146" pos="2.335146" lane="52578336#5_0" slope="0.000000"/>
    </timestep>
    <timestep time="42.00">
        <vehicle id="flow_0.0" x="13.314706" y="52.511979" angle="191.593019" type="vehDist71" speed="9.017867" pos="28.131639" lane=":junc_01_39_0" slope="0.000000"/>
        <vehicle id="flow_0.1" x="13.319064" y="52.512564" angle="265.062208" type="vehDist6" speed="1.502897" pos="3.838044" lane="52578336#5_0" slope="0.000000"/>
    </timestep>
    <timestep time="43.00">
        <vehicle id="flow_0.0" x="13.314687" y="52.511893" angle="186.403680" type="vehDist71" speed="9.595506" pos="4.707145" lane="4490162#0_0" slope="0.000000"/>
        <vehicle id="flow_0.1" x="13.319035" y="52.512562" angle="265.062208" type="vehDist6" speed="2.013271" pos="5.851315" lane="52578336#5_0" slope="0.000000"/>
    </timestep>
    <timestep time="44.00">
        <vehicle id="flow_0.0" x="13.314674" y="52.511807" angle="186.403680" type="vehDist71" speed="9.643979" pos="14.351124" lane="4490162#0_0" slope="0.000000"/>
        <vehicle id="flow_0.1" x="13.318993" y="52.512559" angle="265.062208" type="vehDist6" speed="2.898425" pos="8.749739" lane="52578336#5_0" slope="0.000000"/>
    </timestep>
    <timestep time="45.00">
        <vehicle id="flow_0.0" x="13.314662" y="52.511720" angle="186.403680" type="vehDist71" speed="9.655412" pos="24.006535" lane="4490162#0_0" slope="0.000000"/>
        <vehicle id="flow_0.1" x="13.318937" y="52.512555" angle="265.062208" type="vehDist6" speed="3.805046" pos="12.554786" lane="52578336#5_0" slope="0.000000"/>
    </timestep>
    <timestep time="46.00">
        <vehicle id="flow_0.0" x="13.314650" y="52.511633" angle="185.668360" type="vehDist71" speed="9.703808" pos="33.710343" lane="4490162#0_0" slope="0.000000"/>
        <vehicle id="flow_0.1" x="13.318868" y="52.512550" angle="265.062208" type="vehDist6" speed="4.672256" pos="17.227042" lane="52578336#5_0" slope="0.000000"/>
    </timestep>
    <timestep time="47.00">
        <vehicle id="flow_0.0" x="13.314640" y="52.511548" angle="185.668360" type="vehDist71" speed="9.567640" pos="43.277983" lane="4490162#0_0" slope="0.000000"/>
        <vehicle id="flow_0.1" x="13.318787" y="52.512545" angle="265.062208" type="vehDist6" speed="5.570789" pos="22.797830" lane="52578336#5_0" slope="0.000000"/>
    </timestep>
    <timestep time="48.00">
        <vehicle id="flow_0.0" x="13.314629" y="52.511460" angle="186.724721" type="vehDist71" speed="9.766200" pos="1.654184" lane="4490162#2_0" slope="0.000000"/>
        <vehicle id="flow_0.1" x="13.318693" y="52.512539" angle="265.062208" type="vehDist6" speed="6.376870" pos="29.174700" lane="52578336#5_0" slope="0.000000"/>
    </timestep>
    <timestep time="49.00">
        <vehicle id="flow_0.0" x="13.314615" y="52.511372" angle="186.724721" type="vehDist71" speed="9.900233" pos="11.554417" lane="4490162#2_0" slope="0.000000"/>
        <vehicle id="flow_0.1" x="13.318590" y="52.512532" angle="265.062208" type="vehDist6" speed="7.076889" pos="36.251589" lane="52578336#5_0" slope="0.000000"/>
    </timestep>
    <timestep time="50.00">
        <vehicle id="flow_0.0" x="13.314602" y="52.511284" angle="186.697359" type="vehDist71" speed="9.799622" pos="2.674039" lane="4490162#4_0" slope="0.000000"/>
        <vehicle id="flow_0.1" x="13.318473" y="52.512524" angle="265.062208" type="vehDist6" speed="7.993569" pos="44.245159" lane="52578336#5_0" slope="0.000000"/>
    </timestep>
    <timestep time="51.00">
        <vehicle id="flow_0.0" x="13.314589" y="52.511197" angle="186.697359" type="vehDist71" speed="9.706052" pos="12.380091" lane="4490162#4_0" slope="0.000000"/>
        <vehicle id="flow_0.1" x="13.318360" y="52.512516" angle="265.062208" type="vehDist6" speed="7.684645" pos="51.929804" lane="52578336#5_0" slope="0.000000"/>
    </timestep>
    <timestep time="52.00">
        <vehicle id="flow_0.0" x="13.314575" y="52.511109" angle="186.697359" type="vehDist71" speed="9.838329" pos="22.218420" lane="4490162#4_0" slope="0.000000"/>
        <vehicle id="flow_0.1" x="13.318245" y="52.512509" angle="265.062208" type="vehDist6" speed="7.892450" pos="59.822253" lane="52578336#5_0" slope="0.000000"/>
    </timestep>
    <timestep time="53.00">
        <vehicle id="flow_0.0" x="13.314562" y="52.511024" angle="186.697359" type="vehDist71" speed="9.539043" pos="31.757463" lane="4490162#4_0" slope="0.000000"/>
        <vehicle id="flow_0.1" x="13.318132" y="52.512501" angle="265.062208" type="vehDist6" speed="7.671135" pos="67.493388" lane="52578336#5_0" slope="0.000000"/>
    </timestep>
    <timestep time="54.00">
        <vehicle id="flow_0.0" x="13.314548" y="52.510938" angle="187.034778" type="vehDist71" speed="9.558340" pos="3.475803" lane="747453201_0" slope="0.000000"/>
        <vehicle id="flow_0.1" x="13.318021" y="52.512494" angle="265.062208" type="vehDist6" speed="7.608677" pos="75.102065" lane="52578336#5_0" slope="0.000000"/>
    </timestep>
    <timestep time="55.00">
        <vehicle id="flow_0.0" x="13.314534" y="52.510851" angle="187.034778" type="vehDist71" speed="9.693159" pos="13.168962" lane="747453201_0" slope="0.000000"/>
        <vehicle id="flow_0.1" x="13.317906" y="52.512486" angle="265.062208" type="vehDist6" speed="7.832138" pos="82.934204" lane="52578336#5_0" slope="0.000000"/>
    </timestep>
    <timestep time="56.00">
        <vehicle id="flow_0.0" x="13.314520" y="52.510765" angle="187.034778" type="vehDist71" speed="9.714817" pos="22.883778" lane="747453201_0" slope="0.000000"/>
        <vehicle id="flow_0.1" x="13.317788" y="52.512478" angle="265.062208" type="vehDist6" speed="8.039605" pos="90.973808" lane="52578336#5_0" slope="0.000000"/>
    </timestep>
    <timestep time="57.00">
        <vehicle id="flow_0.0" x="13.314506" y="52.510677" angle="186.941963" type="vehDist71" speed="9.840691" pos="8.304470" lane=":26704524_0_0" slope="0.000000"/>
        <vehicle id="flow_0.1" x="13.317671" y="52.512470" angle="265.062208" type="vehDist6" speed="7.985648" pos="98.959456" lane="52578336#5_0" slope="0.000000"/>
    </timestep>
    <timestep time="58.00">
        <vehicle id="flow_0.0" x="13.314492" y="52.510589" angle="186.821981" type="vehDist71" speed="9.811084" pos="2.975553" lane="37036260#0_0" slope="0.000000"/>
        <vehicle id="flow_0.1" x="13.317558" y="52.512463" angle="265.062208" type="vehDist6" speed="7.720329" pos="106.679784" lane="52578336#5_0" slope="0.000000"/>
    </timestep>
    <timestep time="59.00">
        <vehicle id="flow_0.0" x="13.314478" y="52.510500" angle="186.821981" type="vehDist71" speed="9.887531" pos="12.863085" lane="37036260#0_0" slope="0.000000"/>
        <vehicle id="flow_0.1" x="13.317466" y="52.512456" angle="265.062208" type="vehDist6" speed="6.308975" pos="112.988759" lane="52578336#5_0" slope="0.000000"/>
    </timestep>
    <timestep time="60.00">
        <vehicle id="flow_0.0" x="13.314464" y="52.510413" angle="186.734369" type="vehDist71" speed="9.772714" pos="22.635799" lane="37036260#0_0" slope="0.000000"/>
        <vehicle id="flow_0.1" x="13.317413" y="52.512453" angle="265.062208" type="vehDist6" speed="3.612262" pos="116.601022" lane="52578336#5_0" slope="0.000000"/>
    </timestep>
    <timestep time="61.00">
        <vehicle id="flow_0.0" x="13.314451" y="52.510327" angle="186.734369" type="vehDist71" speed="9.542874" pos="32.178673" lane="37036260#0_0" slope="0.000000"/>
        <vehicle id="flow_0.1" x="13.317402" y="52.512452" angle="265.062208" type="vehDist6" speed="0.782605" pos="117.383627" lane="52578336#5_0" slope="0.000000"/>
    </timestep>
    <timestep time="62.00">
        <vehicle id="flow_0.0" x="13.314438" y="52.510241" angle="186.709837" type="vehDist71" speed="9.628002" pos="5.996674" lane="37036260#1_0" slope="0.000000"/>
        <vehicle id="flow_0.1" x="13.317397" y="52.512452" angle="265.062208" type="vehDist6" speed="0.301328" pos="117.684954" lane="52578336#5_0" slope="0.000000"/>
    </timestep>
    <timestep time="63.00">
        <vehicle id="flow_0.0" x="13.314424" y="52.510153" angle="186.709837" type="vehDist71" speed="9.892095" pos="15.888770" lane="37036260#1_0" slope="0.000000"/>
        <vehicle id="flow_0.1" x="13.317396" y="52.512452" angle="265.062208" type="vehDist6" speed="0.112961" pos="117.797915" lane="52578336#5_0" slope="0.000000"/>
    </timestep>
    <timestep time="64.00">
        <vehicle id="flow_0.1" x="13.317395" y="52.512452" angle="265.062208" type="vehDist6" speed="0.047204" pos="117.845119" lane="52578336#5_0" slope="0.000000"/>
    </timestep>
    <timestep time="65.00">
        <vehicle id="flow_0.1" x="13.317395" y="52.512452" angle="265.062208" type="vehDist6" speed="0.002709" pos="117.847828" lane="52578336#5_0" slope="0.000000"/>
    </timestep>
    <timestep time="66.00">
        <vehicle id="flow_0.1" x="13.317395" y="52.512452" angle="265.062208" type="vehDist6" speed="0.000877" pos="117.848705" lane="52578336#5_0" slope="0.000000"/>
    </timestep>
    <timestep time="67.00">
        <vehicle id="flow_0.1" x="13.317395" y="52.512452" angle="265.062208" type="vehDist6" speed="0.000185" pos="117.848890" lane="52578336#5_0" slope="0.000000"/>
    </timestep>
    <timestep time="68.00">
        <vehicle id="flow_0.1" x="13.317395" y="52.512452" angle="265.062208" type="vehDist6" speed="0.000102" pos="117.848992" lane="52578336#5_0" slope="0.000000"/>
    </timestep>
    <timestep time="69.00">
        <vehicle id="flow_0.1" x="13.317395" y="52.512452" angle="265.062208" type="vehDist6" speed="0.000000" pos="117.848992" lane="52578336#5_0" slope="0.000000"/>
    </timestep>
    <timestep time="70.00">
        <vehicle id="flow_0.1" x="13.317395" y="52.512452" angle="265.062208" type="vehDist6" speed="0.000000" pos="117.848992" lane="52578336#5_0" slope="0.000000"/>
    </timestep>
    <timestep time="71.00">
        <vehicle id="flow_0.1" x="13.317395" y="52.512452" angle="265.062208" type="vehDist6" speed="0.000000" pos="117.848992" lane="52578336#5_0" slope="0.000000"/>
    </timestep>
    <timestep time="72.00">
        <vehicle id="flow_0.1" x="13.317395" y="52.512452" angle="265.062208" type="vehDist6" speed="0.000000" pos="117.848992" lane="52578336#5_0" slope="0.000000"/>
    </timestep>
    <timestep time="73.00">
        <vehicle id="flow_0.1" x="13.317395" y="52.512452" angle="265.062208" type="vehDist6" speed="0.000000" pos="117.848992" lane="52578336#5_0" slope="0.000000"/>
    </timestep>
    <timestep time="74.00">
        <vehicle id="flow_0.1" x="13.317395" y="52.512452" angle="265.062208" type="vehDist6" speed="0.000000" pos="117.848992" lane="52578336#5_0" slope="0.000000"/>
    </timestep>
    <timestep time="75.00">
        <vehicle id="flow_0.1" x="13.317395" y="52.512452" angle="265.062208" type="vehDist6" speed="0.000000" pos="117.848992" lane="52578336#5_0" slope="0.000000"/>
    </timestep>
    <timestep time="76.00">
        <vehicle id="flow_0.1" x="13.317395" y="52.512452" angle="265.062208" type="vehDist6" speed="0.000000" pos="117.848992" lane="52578336#5_0" slope="0.000000"/>
    </timestep>
    <timestep time="77.00">
        <vehicle id="flow_0.1" x="13.317395" y="52.512452" angle="265.062208" type="vehDist6" speed="0.000000" pos="117.848992" lane="52578336#5_0" slope="0.000000"/>
    </timestep>
    <timestep time="78.00">
        <vehicle id="flow_0.1" x="13.317395" y="52.512452" angle="265.062208" type="vehDist6" speed="0.000000" pos="117.848992" lane="52578336#5_0" slope="0.000000"/>
    </timestep>
    <timestep time="79.00">
        <vehicle id="flow_0.1" x="13.317395" y="52.512452" angle="265.062208" type="vehDist6" speed="0.000000" pos="117.848992" lane="52578336#5_0" slope="0.000000"/>
    </timestep>
    <timestep time="80.00">
        <vehicle id="flow_0.1" x="13.317395" y="52.512452" angle="265.062208" type="vehDist6" speed="0.000000" pos="117.848992" lane="52578336#5_0" slope="0.000000"/>
        <vehicle id="flow_0.2" x="13.319096" y="52.512566" angle="265.062208" type="vehDist82" speed="0.000000" pos="1.700000" lane="52578336#5_0" slope="0.000000"/>
    </timestep>
    <timestep time="81.00">
        <vehicle id="flow_0.1" x="13.317395" y="52.512452" angle="265.062208" type="vehDist6" speed="0.000000" pos="117.848992" lane="52578336#5_0" slope="0.000000"/>
        <vehicle id="flow_0.2" x="13.319085" y="52.512565" angle="265.062208" type="vehDist82" speed="0.720690" pos="2.420690" lane="52578336#5_0" slope="0.000000"/>
    </timestep>
    <timestep time="82.00">
        <vehicle id="flow_0.1" x="13.317395" y="52.512452" angle="265.062208" type="vehDist6" speed="0.000000" pos="117.848992" lane="52578336#5_0" slope="0.000000"/>
        <vehicle id="flow_0.2" x="13.319066" y="52.512564" angle="265.062208" type="vehDist82" speed="1.297034" pos="3.717724" lane="52578336#5_0" slope="0.000000"/>
    </timestep>
    <timestep time="83.00">
        <vehicle id="flow_0.1" x="13.317395" y="52.512452" angle="265.062208" type="vehDist6" speed="0.000000" pos="117.848992" lane="52578336#5_0" slope="0.000000"/>
        <vehicle id="flow_0.2" x="13.319040" y="52.512562" angle="265.062208" type="vehDist82" speed="1.786225" pos="5.503949" lane="52578336#5_0" slope="0.000000"/>
    </timestep>
    <timestep time="84.00">
        <vehicle id="flow_0.1" x="13.317395" y="52.512452" angle="265.062208" type="vehDist6" speed="0.000000" pos="117.848992" lane="52578336#5_0" slope="0.000000"/>
        <vehicle id="flow_0.2" x="13.319007" y="52.512560" angle="265.062208" type="vehDist82" speed="2.246235" pos="7.750184" lane="52578336#5_0" slope="0.000000"/>
    </timestep>
    <timestep time="85.00">
        <vehicle id="flow_0.1" x="13.317395" y="52.512452" angle="265.062208" type="vehDist6" speed="0.000000" pos="117.848992" lane="52578336#5_0" slope="0.000000"/>
        <vehicle id="flow_0.2" x="13.318965" y="52.512557" angle="265.062208" type="vehDist82" speed="2.856445" pos="10.606629" lane="52578336#5_0" slope="0.000000"/>
    </timestep>
    <timestep time="86.00">
        <vehicle id="flow_0.1" x="13.317395" y="52.512452" angle="265.062208" type="vehDist6" speed="0.000000" pos="117.848992" lane="52578336#5_0" slope="0.000000"/>
        <vehicle id="flow_0.2" x="13.318917" y="52.512554" angle="265.062208" type="vehDist82" speed="3.285386" pos="13.892014" lane="52578336#5_0" slope="0.000000"/>
    </timestep>
    <timestep time="87.00">
        <vehicle id="flow_0.1" x="13.317395" y="52.512452" angle="265.062208" type="vehDist6" speed="0.000000" pos="117.848992" lane="52578336#5_0" slope="0.000000"/>
        <vehicle id="flow_0.2" x="13.318862" y="52.512550" angle="265.062208" type="vehDist82" speed="3.744954" pos="17.636968" lane="52578336#5_0" slope="0.000000"/>
    </timestep>
    <timestep time="88.00">
        <vehicle id="flow_0.1" x="13.317395" y="52.512452" angle="265.062208" type="vehDist6" speed="0.000000" pos="117.848992" lane="52578336#5_0" slope="0.000000"/>
        <vehicle id="flow_0.2" x="13.318798" y="52.512546" angle="265.062208" type="vehDist82" speed="4.415275" pos="22.052243" lane="52578336#5_0" slope="0.000000"/>
    </timestep>
    <timestep time="89.00">
        <vehicle id="flow_0.1" x="13.317395" y="52.512452" angle="265.062208" type="vehDist6" speed="0.000000" pos="117.848992" lane="52578336#5_0" slope="0.000000"/>
        <vehicle id="flow_0.2" x="13.318722" y="52.512541" angle="265.062208" type="vehDist82" speed="5.149989" pos="27.202231" lane="52578336#5_0" slope="0.000000"/>
    </timestep>
    <timestep time="90.00">
        <vehicle id="flow_0.1" x="13.317384" y="52.512451" angle="265.062208" type="vehDist6" speed="0.742062" pos="118.591054" lane="52578336#5_0" slope="0.000000"/>
        <vehicle id="flow_0.2" x="13.318639" y="52.512535" angle="265.062208" type="vehDist82" speed="5.716683" pos="32.918915" lane="52578336#5_0" slope="0.000000"/>
    </timestep>
    <timestep time="91.00">
        <vehicle id="flow_0.1" x="13.317362" y="52.512449" angle="265.315621" type="vehDist6" speed="1.471206" pos="1.212260" lane=":cluster_1254415600_26704482_4782446440_4782446441_4782446442_4782446443_5997739567_5997739568_628156652_628156655_1_0" slope="0.000000"/>
        <vehicle id="flow_0.2" x="13.318546" y="52.512529" angle="265.062208" type="vehDist82" speed="6.331763" pos="39.250678" lane="52578336#5_0" slope="0.000000"/>
    </timestep>
    <timestep time="92.00">
        <vehicle id="flow_0.1" x="13.317328" y="52.512447" angle="265.396687" type="vehDist6" speed="2.315560" pos="3.527820" lane=":cluster_1254415600_26704482_4782446440_4782446441_4782446442_4782446443_5997739567_5997739568_628156652_628156655_1_0" slope="0.000000"/>
        <vehicle id="flow_0.2" x="13.318445" y="52.512522" angle="265.062208" type="vehDist82" speed="6.890258" pos="46.140936" lane="52578336#5_0" slope="0.000000"/>
    </timestep>
    <timestep time="93.00">
        <vehicle id="flow_0.1" x="13.317282" y="52.512444" angle="265.396687" type="vehDist6" speed="3.145809" pos="6.673629" lane=":cluster_1254415600_26704482_4782446440_4782446441_4782446442_4782446443_5997739567_5997739568_628156652_628156655_1_0" slope="0.000000"/>
        <vehicle id="flow_0.2" x="13.318335" y="52.512515" angle="265.062208" type="vehDist82" speed="7.518972" pos="53.659908" lane="52578336#5_0" slope="0.000000"/>
    </timestep>
    <timestep time="94.00">
        <vehicle id="flow_0.1" x="13.317224" y="52.512441" angle="265.396687" type="vehDist6" speed="3.951106" pos="10.624734" lane=":cluster_1254415600_26704482_4782446440_4782446441_4782446442_4782446443_5997739567_5997739568_628156652_628156655_1_0" slope="0.000000"/>
        <vehicle id="flow_0.2" x="13.318223" y="52.512507" angle="265.062208" type="vehDist82" speed="7.617910" pos="61.277818" lane="52578336#5_0" slope="0.000000"/>
    </timestep>
    <timestep time="95.00">
        <vehicle id="flow_0.1" x="13.317158" y="52.512436" angle="265.396687" type="vehDist6" speed="4.536133" pos="15.160867" lane=":cluster_1254415600_26704482_4782446440_4782446441_4782446442_4782446443_5997739567_5997739568_628156652_628156655_1_0" slope="0.000000"/>
        <vehicle id="flow_0.2" x="13.318113" y="52.512500" angle="265.062208" type="vehDist82" speed="7.512177" pos="68.789995" lane="52578336#5_0" slope="0.000000"/>
    </timestep>
    <timestep time="96.00">
        <vehicle id="flow_0.1" x="13.317082" y="52.512432" angle="265.396687" type="vehDist6" speed="5.177765" pos="20.338632" lane=":cluster_1254415600_26704482_4782446440_4782446441_4782446442_4782446443_5997739567_5997739568_628156652_628156655_1_0" slope="0.000000"/>
        <vehicle id="flow_0.2" x="13.318000" y="52.512492" angle="265.062208" type="vehDist82" speed="7.718154" pos="76.508150" lane="52578336#5_0" slope="0.000000"/>
    </timestep>
    <timestep time="97.00">
        <vehicle id="flow_0.1" x="13.316999" y="52.512426" angle="265.396687" type="vehDist6" speed="5.674756" pos="26.013388" lane=":cluster_1254415600_26704482_4782446440_4782446441_4782446442_4782446443_5997739567_5997739568_628156652_628156655_1_0" slope="0.000000"/>
        <vehicle id="flow_0.2" x="13.317887" y="52.512485" angle="265.062208" type="vehDist82" speed="7.731849" pos="84.239999" lane="52578336#5_0" slope="0.000000"/>
    </timestep>
    <timestep time="98.00">
        <vehicle id="flow_0.1" x="13.316903" y="52.512420" angle="265.396687" type="vehDist6" speed="6.522325" pos="32.535712" lane=":cluster_1254415600_26704482_4782446440_4782446441_4782446442_4782446443_5997739567_5997739568_628156652_628156655_1_0" slope="0.000000"/>
        <vehicle id="flow_0.2" x="13.317777" y="52.512477" angle="265.062208" type="vehDist82" speed="7.489026" pos="91.729025" lane="52578336#5_0" slope="0.000000"/>