<?xml version="1.0" encoding="UTF-8"?>

<!-- generated on Thu May 27 16:30:05 2021 by Eclipse SUMO sumo Version v1_7_0+1228-0b1a97d77e
<configuration xmlns:xsi="http://www.w3.org/2001/XMLSchema-instance" xsi:noNamespaceSchemaLocation="http://sumo.dlr.de/xsd/sumoConfiguration.xsd">

    <input>
        <net-file value="moabit_exp.net.xml"/>
        <route-files value="moabit_new_params.trips.xml"/>
    </input>

    <output>
        <fcd-output value="fcd_out.xml"/>
        <fcd-output.geo value="true"/>
    </output>

    <time>
        <begin value="0"/>
        <end value="10000"/>
    </time>

    <processing>
        <tls.actuated.show-detectors value="true"/>
    </processing>

    <fcd_device>
        <device.fcd.explicit value="vehDist"/>
    </fcd_device>

</configuration>
-->

<fcd-export xmlns:xsi="http://www.w3.org/2001/XMLSchema-instance" xsi:noNamespaceSchemaLocation="http://sumo.dlr.de/xsd/fcd_file.xsd">
    <timestep time="0.00">
        <vehicle id="flow_0.0" x="13.331276" y="52.527215" angle="280.472929" type="vehDist74" speed="0.000000" pos="1.700000" lane="482223508#0_0" slope="0.000000"/>
    </timestep>
    <timestep time="1.00">
        <vehicle id="flow_0.0" x="13.331265" y="52.527216" angle="280.472929" type="vehDist74" speed="0.754067" pos="2.454067" lane="482223508#0_0" slope="0.000000"/>
    </timestep>
    <timestep time="2.00">
        <vehicle id="flow_0.0" x="13.331245" y="52.527218" angle="280.472929" type="vehDist74" speed="1.436259" pos="3.890326" lane="482223508#0_0" slope="0.000000"/>
    </timestep>
    <timestep time="3.00">
        <vehicle id="flow_0.0" x="13.331215" y="52.527221" angle="280.472929" type="vehDist74" speed="2.009756" pos="5.900082" lane="482223508#0_0" slope="0.000000"/>
    </timestep>
    <timestep time="4.00">
        <vehicle id="flow_0.0" x="13.331173" y="52.527225" angle="280.472929" type="vehDist74" speed="2.917142" pos="8.817224" lane="482223508#0_0" slope="0.000000"/>
    </timestep>
    <timestep time="5.00">
        <vehicle id="flow_0.0" x="13.331122" y="52.527230" angle="280.472929" type="vehDist74" speed="3.457840" pos="12.275064" lane="482223508#0_0" slope="0.000000"/>
    </timestep>
    <timestep time="6.00">
        <vehicle id="flow_0.0" x="13.331062" y="52.527236" angle="280.472929" type="vehDist74" speed="4.118075" pos="16.393139" lane="482223508#0_0" slope="0.000000"/>
    </timestep>
    <timestep time="7.00">
        <vehicle id="flow_0.0" x="13.330995" y="52.527242" angle="280.472929" type="vehDist74" speed="4.653051" pos="21.046190" lane="482223508#0_0" slope="0.000000"/>
    </timestep>
    <timestep time="8.00">
        <vehicle id="flow_0.0" x="13.330916" y="52.527250" angle="280.472929" type="vehDist74" speed="5.373344" pos="26.419534" lane="482223508#0_0" slope="0.000000"/>
    </timestep>
    <timestep time="9.00">
        <vehicle id="flow_0.0" x="13.330826" y="52.527259" angle="280.542775" type="vehDist74" speed="6.178635" pos="0.018169" lane=":cluster_26726587_26984409_29927301_5500265034_5500265035_5500265036_5500265037_5500265038_5500265039_5500265040_5500265041_5500265042_5500265043_5500265044_6_0" slope="0.000000"/>
    </timestep>
    <timestep time="10.00">
        <vehicle id="flow_0.0" x="13.330742" y="52.527280" angle="305.317649" type="vehDist74" speed="6.262479" pos="6.280648" lane=":cluster_26726587_26984409_29927301_5500265034_5500265035_5500265036_5500265037_5500265038_5500265039_5500265040_5500265041_5500265042_5500265043_5500265044_6_0" slope="0.000000"/>
    </timestep>
    <timestep time="11.00">
        <vehicle id="flow_0.0" x="13.330698" y="52.527335" angle="329.263669" type="vehDist74" speed="6.564872" pos="0.275520" lane="4703556#1_0" slope="0.000000"/>
    </timestep>
    <timestep time="12.00">
        <vehicle id="flow_0.0" x="13.330712" y="52.527394" angle="9.559262" type="vehDist74" speed="6.592636" pos="6.868156" lane="4703556#1_0" slope="0.000000"/>
    </timestep>
    <timestep time="13.00">
        <vehicle id="flow_0.0" x="13.330726" y="52.527451" angle="9.559262" type="vehDist74" speed="6.442511" pos="13.310667" lane="4703556#1_0" slope="0.000000"/>
    </timestep>
    <timestep time="14.00">
        <vehicle id="flow_0.0" x="13.330739" y="52.527507" angle="9.559262" type="vehDist74" speed="6.250673" pos="19.561340" lane="4703556#1_0" slope="0.000000"/>
    </timestep>
    <timestep time="15.00">
        <vehicle id="flow_0.0" x="13.330752" y="52.527563" angle="9.559262" type="vehDist74" speed="6.274207" pos="25.835547" lane="4703556#1_0" slope="0.000000"/>
    </timestep>
    <timestep time="16.00">
        <vehicle id="flow_0.0" x="13.330766" y="52.527618" angle="9.559262" type="vehDist74" speed="6.261852" pos="32.097399" lane="4703556#1_0" slope="0.000000"/>
    </timestep>
    <timestep time="17.00">
        <vehicle id="flow_0.0" x="13.330779" y="52.527673" angle="9.559262" type="vehDist74" speed="6.133269" pos="38.230668" lane="4703556#1_0" slope="0.000000"/>
    </timestep>
    <timestep time="18.00">
        <vehicle id="flow_0.0" x="13.330792" y="52.527728" angle="9.559262" type="vehDist74" speed="6.215599" pos="44.446268" lane="4703556#1_0" slope="0.000000"/>
    </timestep>
    <timestep time="19.00">
        <vehicle id="flow_0.0" x="13.330805" y="52.527784" angle="9.559262" type="vehDist74" speed="6.265016" pos="50.711283" lane="4703556#1_0" slope="0.000000"/>
    </timestep>
    <timestep time="20.00">
        <vehicle id="flow_0.0" x="13.330818" y="52.527839" angle="9.559262" type="vehDist74" speed="6.217143" pos="56.928426" lane="4703556#1_0" slope="0.000000"/>
    </timestep>
    <timestep time="21.00">
        <vehicle id="flow_0.0" x="13.330831" y="52.527894" angle="9.559262" type="vehDist74" speed="6.193743" pos="63.122169" lane="4703556#1_0" slope="0.000000"/>
    </timestep>
    <timestep time="22.00">
        <vehicle id="flow_0.0" x="13.330844" y="52.527950" angle="9.559262" type="vehDist74" speed="6.261721" pos="69.383890" lane="4703556#1_0" slope="0.000000"/>
    </timestep>
    <timestep time="23.00">
        <vehicle id="flow_0.0" x="13.330858" y="52.528006" angle="9.559262" type="vehDist74" speed="6.336861" pos="75.720750" lane="4703556#1_0" slope="0.000000"/>
    </timestep>
    <timestep time="24.00">
        <vehicle id="flow_0.0" x="13.330871" y="52.528063" angle="9.559262" type="vehDist74" speed="6.339632" pos="82.060383" lane="4703556#1_0" slope="0.000000"/>
    </timestep>
    <timestep time="25.00">
        <vehicle id="flow_0.0" x="13.330884" y="52.528118" angle="9.559262" type="vehDist74" speed="6.254194" pos="88.314577" lane="4703556#1_0" slope="0.000000"/>
    </timestep>
    <timestep time="26.00">
        <vehicle id="flow_0.0" x="13.330897" y="52.528173" angle="9.559262" type="vehDist74" speed="6.129805" pos="94.444382" lane="4703556#1_0" slope="0.000000"/>
    </timestep>
    <timestep time="27.00">
        <vehicle id="flow_0.0" x="13.330911" y="52.528231" angle="9.559262" type="vehDist74" speed="6.524835" pos="100.969217" lane="4703556#1_0" slope="0.000000"/>
    </timestep>
    <timestep time="28.00">
        <vehicle id="flow_0.0" x="13.330925" y="52.528289" angle="9.559262" type="vehDist74" speed="6.516771" pos="107.485987" lane="4703556#1_0" slope="0.000000"/>
    </timestep>
    <timestep time="29.00">
        <vehicle id="flow_0.0" x="13.330938" y="52.528345" angle="9.559262" type="vehDist74" speed="6.318867" pos="113.804855" lane="4703556#1_0" slope="0.000000"/>
    </timestep>
    <timestep time="30.00">
        <vehicle id="flow_0.0" x="13.330951" y="52.528400" angle="9.559262" type="vehDist74" speed="6.200857" pos="120.005711" lane="4703556#1_0" slope="0.000000"/>
    </timestep>
    <timestep time="31.00">
        <vehicle id="flow_0.0" x="13.330964" y="52.528455" angle="9.559262" type="vehDist74" speed="6.187389" pos="126.193100" lane="4703556#1_0" slope="0.000000"/>
    </timestep>
    <timestep time="32.00">
        <vehicle id="flow_0.0" x="13.330924" y="52.528493" angle="281.390336" type="vehDist74" speed="6.347897" pos="1.750997" lane="203910785_0" slope="0.000000"/>
    </timestep>
    <timestep time="33.00">
        <vehicle id="flow_0.0" x="13.330836" y="52.528504" angle="285.629027" type="vehDist74" speed="6.122974" pos="0.883971" lane=":29927303_0_0" slope="0.000000"/>
    </timestep>
    <timestep time="34.00">
        <vehicle id="flow_0.0" x="13.330781" y="52.528545" angle="350.351955" type="vehDist74" speed="6.364692" pos="7.248663" lane=":29927303_0_0" slope="0.000000"/>
    </timestep>
    <timestep time="35.00">
        <vehicle id="flow_0.0" x="13.330783" y="52.528600" angle="9.677013" type="vehDist74" speed="6.179900" pos="5.828563" lane="-405894861_0" slope="0.000000"/>
    </timestep>
    <timestep time="36.00">
        <vehicle id="flow_0.0" x="13.330796" y="52.528655" angle="9.677013" type="vehDist74" speed="6.157591" pos="11.986154" lane="-405894861_0" slope="0.000000"/>
    </timestep>
    <timestep time="37.00">
        <vehicle id="flow_0.0" x="13.330810" y="52.528713" angle="9.677013" type="vehDist74" speed="6.593811" pos="18.579964" lane="-405894861_0" slope="0.000000"/>
    </timestep>
    <timestep time="38.00">
        <vehicle id="flow_0.0" x="13.330824" y="52.528771" angle="9.677013" type="vehDist74" speed="6.434216" pos="25.014181" lane="-405894861_0" slope="0.000000"/>
    </timestep>
    <timestep time="39.00">
        <vehicle id="flow_0.0" x="13.330838" y="52.528829" angle="9.677013" type="vehDist74" speed="6.528925" pos="31.543106" lane="-405894861_0" slope="0.000000"/>
    </timestep>
    <timestep time="40.00">
        <vehicle id="flow_0.0" x="13.330852" y="52.528885" angle="9.677013" type="vehDist74" speed="6.382881" pos="37.925987" lane="-405894861_0" slope="0.000000"/>
    </timestep>
    <timestep time="41.00">
        <vehicle id="flow_0.0" x="13.330863" y="52.528930" angle="9.677013" type="vehDist74" speed="5.064438" pos="42.990425" lane="-405894861_0" slope="0.000000"/>
    </timestep>
    <timestep time="42.00">
        <vehicle id="flow_0.0" x="13.330875" y="52.528980" angle="10.024092" type="vehDist74" speed="5.616214" pos="3.316639" lane=":26757043_7_0" slope="0.000000"/>
    </timestep>
    <timestep time="43.00">
        <vehicle id="flow_0.0" x="13.330889" y="52.529037" angle="10.024092" type="vehDist74" speed="6.373695" pos="9.690334" lane=":26757043_7_0" slope="0.000000"/>
    </timestep>
    <timestep time="44.00">
        <vehicle id="flow_0.0" x="13.330903" y="52.529091" angle="10.365584" type="vehDist74" speed="6.108430" pos="1.378764" lane="-29400740#5_0" slope="0.000000"/>
    </timestep>
    <timestep time="45.00">
        <vehicle id="flow_0.0" x="13.330917" y="52.529147" angle="10.420379" type="vehDist74" speed="6.264692" pos="7.643455" lane="-29400740#5_0" slope="0.000000"/>
    </timestep>
    <timestep time="46.00">
        <vehicle id="flow_0.0" x="13.330932" y="52.529202" angle="10.420379" type="vehDist74" speed="6.153347" pos="13.796802" lane="-29400740#5_0" slope="0.000000"/>
    </timestep>
    <timestep time="47.00">
        <vehicle id="flow_0.0" x="13.330947" y="52.529258" angle="10.420379" type="vehDist74" speed="6.405236" pos="20.202038" lane="-29400740#5_0" slope="0.000000"/>
    </timestep>
    <timestep time="48.00">
        <vehicle id="flow_0.0" x="13.330962" y="52.529317" angle="10.420379" type="vehDist74" speed="6.557754" pos="26.759792" lane="-29400740#5_0" slope="0.000000"/>
    </timestep>
    <timestep time="49.00">
        <vehicle id="flow_0.0" x="13.330977" y="52.529372" angle="10.420379" type="vehDist74" speed="6.256272" pos="33.016063" lane="-29400740#5_0" slope="0.000000"/>
    </timestep>
    <timestep time="50.00">
        <vehicle id="flow_0.0" x="13.330991" y="52.529426" angle="10.420379" type="vehDist74" speed="6.113883" pos="39.129946" lane="-29400740#5_0" slope="0.000000"/>
    </timestep>
    <timestep time="51.00">
        <vehicle id="flow_0.0" x="13.331006" y="52.529484" angle="10.420379" type="vehDist74" speed="6.529719" pos="45.659664" lane="-29400740#5_0" slope="0.000000"/>
    </timestep>
    <timestep time="52.00">
        <vehicle id="flow_0.0" x="13.331021" y="52.529542" angle="10.420379" type="vehDist74" speed="6.444109" pos="52.103773" lane="-29400740#5_0" slope="0.000000"/>
    </timestep>
    <timestep time="53.00">
        <vehicle id="flow_0.0" x="13.331036" y="52.529598" angle="10.420379" type="vehDist74" speed="6.329843" pos="58.433616" lane="-29400740#5_0" slope="0.000000"/>
    </timestep>
    <timestep time="54.00">
        <vehicle id="flow_0.0" x="13.331051" y="52.529654" angle="10.420379" type="vehDist74" speed="6.352284" pos="64.785900" lane="-29400740#5_0" slope="0.000000"/>
    </timestep>
    <timestep time="55.00">
        <vehicle id="flow_0.0" x="13.331065" y="52.529710" angle="10.420379" type="vehDist74" speed="6.313429" pos="71.099329" lane="-29400740#5_0" slope="0.000000"/>
    </timestep>
    <timestep time="56.00">
        <vehicle id="flow_0.0" x="13.331080" y="52.529765" angle="10.420379" type="vehDist74" speed="6.162848" pos="77.262176" lane="-29400740#5_0" slope="0.000000"/>
    </timestep>
    <timestep time="57.00">
        <vehicle id="flow_0.0" x="13.331095" y="52.529822" angle="10.420379" type="vehDist74" speed="6.431010" pos="83.693187" lane="-29400740#5_0" slope="0.000000"/>
    </timestep>
    <timestep time="58.00">
        <vehicle id="flow_0.0" x="13.331110" y="52.529880" angle="10.420379" type="vehDist74" speed="6.491265" pos="90.184451" lane="-29400740#5_0" slope="0.000000"/>
    </timestep>
    <timestep time="59.00">
        <vehicle id="flow_0.0" x="13.331125" y="52.529937" angle="10.420379" type="vehDist74" speed="6.443345" pos="96.627796" lane="-29400740#5_0" slope="0.000000"/>
    </timestep>
    <timestep time="60.00">
        <vehicle id="flow_0.0" x="13.331140" y="52.529993" angle="10.420379" type="vehDist74" speed="6.345009" pos="102.972806" lane="-29400740#5_0" slope="0.000000"/>
    </timestep>
    <timestep time="61.00">
        <vehicle id="flow_0.0" x="13.331155" y="52.530051" angle="10.420379" type="vehDist74" speed="6.523352" pos="109.496158" lane="-29400740#5_0" slope="0.000000"/>
    </timestep>
    <timestep time="62.00">
        <vehicle id="flow_0.0" x="13.331170" y="52.530107" angle="10.420379" type="vehDist74" speed="6.342902" pos="115.839060" lane="-29400740#5_0" slope="0.000000"/>
    </timestep>
    <timestep time="63.00">
        <vehicle id="flow_0.0" x="13.331184" y="52.530163" angle="10.420379" type="vehDist74" speed="6.233597" pos="122.072657" lane="-29400740#5_0" slope="0.000000"/>
    </timestep>
    <timestep time="64.00">
        <vehicle id="flow_0.0" x="13.331198" y="52.530218" angle="10.420379" type="vehDist74" speed="6.192160" pos="128.264817" lane="-29400740#5_0" slope="0.000000"/>
    </timestep>
    <timestep time="65.00">
        <vehicle id="flow_0.0" x="13.331213" y="52.530273" angle="10.420379" type="vehDist74" speed="6.297573" pos="134.562390" lane="-29400740#5_0" slope="0.000000"/>
    </timestep>
    <timestep time="66.00">
        <vehicle id="flow_0.0" x="13.331228" y="52.530329" angle="10.420379" type="vehDist74" speed="6.271125" pos="140.833514" lane="-29400740#5_0" slope="0.000000"/>
    </timestep>
    <timestep time="67.00">
        <vehicle id="flow_0.0" x="13.331243" y="52.530386" angle="10.420379" type="vehDist74" speed="6.449254" pos="147.282769" lane="-29400740#5_0" slope="0.000000"/>
    </timestep>
    <timestep time="68.00">
        <vehicle id="flow_0.0" x="13.331258" y="52.530444" angle="10.420379" type="vehDist74" speed="6.503290" pos="153.786059" lane="-29400740#5_0" slope="0.000000"/>
    </timestep>
    <timestep time="69.00">
        <vehicle id="flow_0.0" x="13.331273" y="52.530501" angle="10.420379" type="vehDist74" speed="6.378767" pos="160.164825" lane="-29400740#5_0" slope="0.000000"/>
    </timestep>
    <timestep time="70.00">
        <vehicle id="flow_0.0" x="13.331287" y="52.530555" angle="10.420379" type="vehDist74" speed="6.158299" pos="166.323125" lane="-29400740#5_0" slope="0.000000"/>
    </timestep>
    <timestep time="71.00">
        <vehicle id="flow_0.0" x="13.331302" y="52.530614" angle="10.420379" type="vehDist74" speed="6.558745" pos="172.881870" lane="-29400740#5_0" slope="0.000000"/>
    </timestep>
    <timestep time="72.00">
        <vehicle id="flow_0.0" x="13.331317" y="52.530670" angle="10.420379" type="vehDist74" speed="6.371204" pos="179.253074" lane="-29400740#5_0" slope="0.000000"/>
    </timestep>
    <timestep time="73.00">
        <vehicle id="flow_0.0" x="13.331332" y="52.530727" angle="10.420379" type="vehDist74" speed="6.367595" pos="185.620668" lane="-29400740#5_0" slope="0.000000"/>
    </timestep>
    <timestep time="74.00">
        <vehicle id="flow_0.0" x="13.331345" y="52.530778" angle="10.420379" type="vehDist74" speed="5.737757" pos="191.358426" lane="-29400740#5_0" slope="0.000000"/>
    </timestep>
    <timestep time="75.00">
        <vehicle id="flow_0.0" x="13.331360" y="52.530835" angle="10.449747" type="vehDist74" speed="6.427202" pos="3.505628" lane=":26726583_9_0" slope="0.000000"/>
    </timestep>
    <timestep time="76.00">
        <vehicle id="flow_0.0" x="13.331376" y="52.530893" angle="10.449747" type="vehDist74" speed="6.564944" pos="10.070572" lane=":26726583_9_0" slope="0.000000"/>
    </timestep>
    <timestep time="77.00">
        <vehicle id="flow_0.0" x="13.331390" y="52.530948" angle="10.471162" type="vehDist74" speed="6.230393" pos="1.800965" lane="-29400740#4_0" slope="0.000000"/>
    </timestep>
    <timestep time="78.00">
        <vehicle id="flow_0.0" x="13.331405" y="52.531002" angle="10.471162" type="vehDist74" speed="6.119836" pos="7.920801" lane="-29400740#4_0" slope="0.000000"/>
    </timestep>
    <timestep time="79.00">
        <vehicle id="flow_0.0" x="13.331419" y="52.531058" angle="10.471162" type="vehDist74" speed="6.214071" pos="14.134872" lane="-29400740#4_0" slope="0.000000"/>
    </timestep>
    <timestep time="80.00">
        <vehicle id="flow_0.0" x="13.331434" y="52.531112" angle="10.471162" type="vehDist74" speed="6.181111" pos="20.315983" lane="-29400740#4_0" slope="0.000000"/>
    </timestep>
    <timestep time="81.00">
        <vehicle id="flow_0.0" x="13.331448" y="52.531167" angle="10.471162" type="vehDist74" speed="6.123390" pos="26.439373" lane="-29400740#4_0" slope="0.000000"/>
    </timestep>
    <timestep time="82.00">
        <vehicle id="flow_0.0" x="13.331464" y="52.531225" angle="11.325081" type="vehDist74" speed="6.550088" pos="1.909461" lane="-29400740#3_0" slope="0.000000"/>
    </timestep>
    <timestep time="83.00">
        <vehicle id="flow_0.0" x="13.331480" y="52.531279" angle="11.325081" type="vehDist74" speed="6.114038" pos="8.023499" lane="-29400740#3_0" slope="0.000000"/>
    </timestep>
    <timestep time="84.00">
        <vehicle id="flow_0.0" x="13.331496" y="52.531335" angle="11.325081" type="vehDist74" speed="6.325128" pos="14.348627" lane="-29400740#3_0" slope="0.000000"/>
    </timestep>
    <timestep time="85.00">
        <vehicle id="flow_0.0" x="13.331512" y="52.531391" angle="11.325081" type="vehDist74" speed="6.378320" pos="20.726947" lane="-29400740#3_0" slope="0.000000"/>
    </timestep>
    <timestep time="86.00">
        <vehicle id="flow_0.0" x="13.331474" y="52.531439" angle="324.157809" type="vehDist74" speed="6.249222" pos="26.976170" lane="-29400740#3_0" slope="0.000000"/>
    </timestep>
    <timestep time="87.00">
        <vehicle id="flow_0.0" x="13.331478" y="52.531495" angle="10.177725" type="vehDist74" speed="6.477830" pos="33.454000" lane="-29400740#3_0" slope="0.000000"/>
    </timestep>
    <timestep time="88.00">
        <vehicle id="flow_0.0" x="13.331492" y="52.531552" angle="10.177725" type="vehDist74" speed="6.433228" pos="39.887228" lane="-29400740#3_0" slope="0.000000"/>
    </timestep>
    <timestep time="89.00">
        <vehicle id="flow_0.0" x="13.331507" y="52.531610" angle="10.177725" type="vehDist74" speed="6.550295" pos="46.437523" lane="-29400740#3_0" slope="0.000000"/>
    </timestep>
    <timestep time="90.00">
        <vehicle id="flow_0.0" x="13.331522" y="52.531666" angle="10.177725" type="vehDist74" speed="6.266624" pos="52.704147" lane="-29400740#3_0" slope="0.000000"/>
    </timestep>
    <timestep time="91.00">
        <vehicle id="flow_0.0" x="13.331536" y="52.531723" angle="10.177725" type="vehDist74" speed="6.439044" pos="59.143191" lane="-29400740#3_0" slope="0.000000"/>
    </timestep>
    <timestep time="92.00">
        <vehicle id="flow_0.0" x="13.331551" y="52.531780" angle="10.177725" type="vehDist74" speed="6.477681" pos="65.620872" lane="-29400740#3_0" slope="0.000000"/>
    </timestep>
    <timestep time="93.00">
        <vehicle id="flow_0.0" x="13.331566" y="52.531839" angle="10.177725" type="vehDist74" speed="6.553660" pos="72.174532" lane="-29400740#3_0" slope="0.000000"/>
    </timestep>
    <timestep time="94.00">
        <vehicle id="flow_0.0" x="13.331581" y="52.531897" angle="10.177725" type="vehDist74" speed="6.584268" pos="78.758800" lane="-29400740#3_0" slope="0.000000"/>
    </timestep>
    <timestep time="95.00">
        <vehicle id="flow_0.0" x="13.331595" y="52.531953" angle="10.177725" type="vehDist74" speed="6.267761" pos="85.026561" lane="-29400740#3_0" slope="0.000000"/>
    </timestep>
    <timestep time="96.00">
        <vehicle id="flow_0.0" x="13.331609" y="52.532009" angle="10.177725" type="vehDist74" speed="6.288011" pos="91.314572" lane="-29400740#3_0" slope="0.000000"/>
    </timestep>
    <timestep time="97.00">
        <vehicle id="flow_0.0" x="13.331622" y="52.532063" angle="9.525949" type="vehDist74" speed="6.170049" pos="3.924621" lane="-29400740#2_0" slope="0.000000"/>
    </timestep>
    <timestep time="98.00">
        <vehicle id="flow_0.0" x="13.331637" y="52.532119" angle="10.452848" type="vehDist74" speed="6.290590" pos="4.025211" lane="-29400740#1_0" slope="0.000000"/>
    </timestep>
    <timestep time="99.00">
        <vehicle id="flow_0.0" x="13.331652" y="52.532177" angle="10.452848" type="vehDist74" speed="6.502325" pos="10.527536" lane="-29400740#1_0" slope="0.000000"/>
    </timestep>
    <timestep time="100.00">
        <vehicle id="flow_0.0" x="13.331698" y="52.532224" angle="50.974323" type="vehDist74" speed="6.505353" pos="17.032889" lane="-29400740#1_0" slope="0.000000"/>
    </timestep>
    <timestep time="101.00">
        <vehicle id="flow_0.0" x="13.331726" y="52.532277" angle="10.464778" type="vehDist74" speed="6.450286" pos="23.483176" lane="-29400740#1_0" slope="0.000000"/>
    </timestep>
    <timestep time="102.00">
        <vehicle id="flow_0.0" x="13.331741" y="52.532334" angle="10.464778" type="vehDist74" speed="6.457946" pos="29.941122" lane="-29400740#1_0" slope="0.000000"/>
    </timestep>
    <timestep time="103.00">
        <vehicle id="flow_0.0" x="13.331756" y="52.532392" angle="10.464778" type="vehDist74" speed="6.444023" pos="36.385144" lane="-29400740#1_0" slope="0.000000"/>
    </timestep>
    <timestep time="104.00">
        <vehicle id="flow_0.0" x="13.331771" y="52.532449" angle="10.464778" type="vehDist74" speed="6.454692" pos="42.839836" lane="-29400740#1_0" slope="0.000000"/>
    </timestep>
    <timestep time="105.00">
        <vehicle id="flow_0.0" x="13.331782" y="52.532492" angle="10.464778" type="vehDist74" speed="4.831439" pos="47.671275" lane="-29400740#1_0" slope="0.000000"/>
    </timestep>
    <timestep time="106.00">
        <vehicle id="flow_0.0" x="13.331795" y="52.532542" angle="9.661130" type="vehDist74" speed="5.627786" pos="2.559062" lane="-29400740#0_0" slope="0.000000"/>
    </timestep>
    <timestep time="107.00">
        <vehicle id="flow_0.0" x="13.331808" y="52.532596" angle="9.661130" type="vehDist74" speed="6.136224" pos="8.695285" lane="-29400740#0_0" slope="0.000000"/>
    </timestep>
    <timestep time="108.00">
        <vehicle id="flow_0.0" x="13.331821" y="52.532650" angle="9.661130" type="vehDist74" speed="6.065294" pos="14.760579" lane="-29400740#0_0" slope="0.000000"/>
    </timestep>
    <timestep time="109.00">
        <vehicle id="flow_0.0" x="13.331828" y="52.532680" angle="9.661130" type="vehDist74" speed="3.344431" pos="18.105010" lane="-29400740#0_0" slope="0.000000"/>
    </timestep>
    <timestep time="110.00">
        <vehicle id="flow_0.0" x="13.331831" y="52.532691" angle="9.661130" type="vehDist74" speed="1.193416" pos="19.298426" lane="-29400740#0_0" slope="0.000000"/>
    </timestep>
    <timestep time="111.00">
        <vehicle id="flow_0.0" x="13.331831" y="52.532691" angle="9.661130" type="vehDist74" speed="0.019199" pos="19.317625" lane="-29400740#0_0" slope="0.000000"/>
    </timestep>
    <timestep time="112.00">
        <vehicle id="flow_0.0" x="13.331831" y="52.532691" angle="9.661130" type="vehDist74" speed="0.000892" pos="19.318517" lane="-29400740#0_0" slope="0.000000"/>
    </timestep>
    <timestep time="113.00">
        <vehicle id="flow_0.0" x="13.331815" y="52.532697" angle="334.132743" type="vehDist74" speed="0.561905" pos="0.460422" lane=":26726581_6_0" slope="0.000000"/>
    </timestep>
    <timestep time="114.00">
        <vehicle id="flow_0.0" x="13.331816" y="52.532709" angle="4.210498" type="vehDist74" speed="1.354717" pos="1.815139" lane=":26726581_6_0" slope="0.000000"/>
    </timestep>
    <timestep time="115.00">
        <vehicle id="flow_0.0" x="13.331818" y="52.532728" angle="4.210498" type="vehDist74" speed="2.110198" pos="3.925337" lane=":26726581_6_0" slope="0.000000"/>
    </timestep>
    <timestep time="116.00">
        <vehicle id="flow_0.0" x="13.331813" y="52.532752" angle="347.555949" type="vehDist74" speed="2.647487" pos="6.572824" lane=":26726581_6_0" slope="0.000000"/>
    </timestep>
    <timestep time="117.00">
        <vehicle id="flow_0.0" x="13.331793" y="52.532778" angle="325.365106" type="vehDist74" speed="3.244537" pos="9.817361" lane=":26726581_6_0" slope="0.000000"/>
    </timestep>
    <timestep time="118.00">
        <vehicle id="flow_0.0" x="13.331741" y="52.532795" angle="287.154498" type="vehDist74" speed="4.202961" pos="14.020322" lane=":26726581_6_0" slope="0.000000"/>
    </timestep>
    <timestep time="119.00">
        <vehicle id="flow_0.0" x="13.331666" y="52.532799" angle="274.763642" type="vehDist74" speed="5.165245" pos="4.375567" lane="30189015#2_0" slope="0.000000"/>
    </timestep>
    <timestep time="120.00">
        <vehicle id="flow_0.0" x="13.331581" y="52.532805" angle="278.402624" type="vehDist74" speed="5.796370" pos="10.171937" lane="30189015#2_0" slope="0.000000"/>
        <vehicle id="flow_0.1" x="13.331276" y="52.527215" angle="280.472929" type="vehDist87" speed="0.000000" pos="1.700000" lane="482223508#0_0" slope="0.000000"/>
    </timestep>
    <timestep time="121.00">
        <vehicle id="flow_0.0" x="13.331485" y="52.532812" angle="278.402624" type="vehDist74" speed="6.563729" pos="16.735666" lane="30189015#2_0" slope="0.000000"/>
        <vehicle id="flow_0.1" x="13.331265" y="52.527216" angle="280.472929" type="vehDist87" speed="0.804305" pos="2.504305" lane="482223508#0_0" slope="0.000000"/>
    </timestep>
    <timestep time="122.00">
        <vehicle id="flow_0.0" x="13.331392" y="52.532819" angle="278.402624" type="vehDist74" speed="6.371778" pos="23.107444" lane="30189015#2_0" slope="0.000000"/>
        <vehicle id="flow_0.1" x="13.331243" y="52.527218" angle="280.472929" type="vehDist87" speed="1.456730" pos="3.961034" lane="482223508#0_0" slope="0.000000"/>
    </timestep>
    <timestep time="123.00">
        <vehicle id="flow_0.0" x="13.331299" y="52.532826" angle="278.402624" type="vehDist74" speed="6.364418" pos="29.471862" lane="30189015#2_0" slope="0.000000"/>
        <vehicle id="flow_0.1" x="13.331212" y="52.527221" angle="280.472929" type="vehDist87" speed="2.159864" pos="6.120898" lane="482223508#0_0" slope="0.000000"/>
    </timestep>
    <timestep time="124.00">
        <vehicle id="flow_0.0" x="13.331209" y="52.532833" angle="278.393700" type="vehDist74" speed="6.302162" pos="3.354023" lane="30189015#3_0" slope="0.000000"/>
        <vehicle id="flow_0.1" x="13.331169" y="52.527225" angle="280.472929" type="vehDist87" speed="2.929516" pos="9.050414" lane="482223508#0_0" slope="0.000000"/>
    </timestep>
    <timestep time="125.00">
        <vehicle id="flow_0.0" x="13.331113" y="52.532840" angle="278.393700" type="vehDist74" speed="6.547532" pos="9.901556" lane="30189015#3_0" slope="0.000000"/>
        <vehicle id="flow_0.1" x="13.331116" y="52.527230" angle="280.472929" type="vehDist87" speed="3.629317" pos="12.679731" lane="482223508#0_0" slope="0.000000"/>
    </timestep>
    <timestep time="126.00">
        <vehicle id="flow_0.0" x="13.331025" y="52.532847" angle="278.410423" type="vehDist74" speed="6.120803" pos="3.932358" lane="30189015#4_0" slope="0.000000"/>
        <vehicle id="flow_0.1" x="13.331056" y="52.527236" angle="280.472929" type="vehDist87" speed="4.176580" pos="16.856311" lane="482223508#0_0" slope="0.000000"/>
    </timestep>
    <timestep time="127.00">
        <vehicle id="flow_0.0" x="13.330935" y="52.532854" angle="278.410423" type="vehDist74" speed="6.124354" pos="10.056712" lane="30189015#4_0" slope="0.000000"/>
        <vehicle id="flow_0.1" x="13.330984" y="52.527243" angle="280.472929" type="vehDist87" speed="4.921417" pos="21.777729" lane="482223508#0_0" slope="0.000000"/>
    </timestep>
    <timestep time="128.00">
        <vehicle id="flow_0.0" x="13.330843" y="52.532861" angle="278.410423" type="vehDist74" speed="6.280935" pos="16.337648" lane="30189015#4_0" slope="0.000000"/>
        <vehicle id="flow_0.1" x="13.330905" y="52.527251" angle="280.472929" type="vehDist87" speed="5.400846" pos="27.178574" lane="482223508#0_0" slope="0.000000"/>
    </timestep>
    <timestep time="129.00">