<?xml version="1.0" encoding="UTF-8"?>

<!-- generated on Fri Nov 26 11:25:07 2021 by Eclipse SUMO sumo Version v1_7_0+1228-0b1a97d77e
<configuration xmlns:xsi="http://www.w3.org/2001/XMLSchema-instance" xsi:noNamespaceSchemaLocation="http://sumo.dlr.de/xsd/sumoConfiguration.xsd">

    <input>
        <net-file value="osm.net.xml"/>
        <route-files value="stralauer.trips.xml"/>
    </input>

    <output>
        <fcd-output value="fcd_out.xml"/>
        <fcd-output.geo value="true"/>
    </output>

    <time>
        <begin value="0"/>
        <end value="8000"/>
    </time>

    <fcd_device>
        <device.fcd.explicit value="vehDist"/>
    </fcd_device>

</configuration>
-->

<fcd-export xmlns:xsi="http://www.w3.org/2001/XMLSchema-instance" xsi:noNamespaceSchemaLocation="http://sumo.dlr.de/xsd/fcd_file.xsd">
    <timestep time="0.00">
        <vehicle id="flow_0.0" x="13.451575" y="52.501530" angle="296.453267" type="vehDist71" speed="0.000000" pos="1.700000" lane="824274199#0_0" slope="0.000000"/>
    </timestep>
    <timestep time="1.00">
        <vehicle id="flow_0.0" x="13.451567" y="52.501532" angle="296.453267" type="vehDist71" speed="0.558052" pos="2.258052" lane="824274199#0_0" slope="0.000000"/>
    </timestep>
    <timestep time="2.00">
        <vehicle id="flow_0.0" x="13.451551" y="52.501536" angle="296.453267" type="vehDist71" speed="1.248381" pos="3.506434" lane="824274199#0_0" slope="0.000000"/>
    </timestep>
    <timestep time="3.00">
        <vehicle id="flow_0.0" x="13.451529" y="52.501543" angle="296.453267" type="vehDist71" speed="1.639424" pos="5.145858" lane="824274199#0_0" slope="0.000000"/>
    </timestep>
    <timestep time="4.00">
        <vehicle id="flow_0.0" x="13.451501" y="52.501551" angle="296.453267" type="vehDist71" speed="2.049764" pos="7.195622" lane="824274199#0_0" slope="0.000000"/>
    </timestep>
    <timestep time="5.00">
        <vehicle id="flow_0.0" x="13.451464" y="52.501561" angle="296.453267" type="vehDist71" speed="2.784008" pos="9.979630" lane="824274199#0_0" slope="0.000000"/>
    </timestep>
    <timestep time="6.00">
        <vehicle id="flow_0.0" x="13.451417" y="52.501575" angle="296.453267" type="vehDist71" speed="3.533507" pos="13.513137" lane="824274199#0_0" slope="0.000000"/>
    </timestep>
    <timestep time="7.00">
        <vehicle id="flow_0.0" x="13.451362" y="52.501591" angle="296.453267" type="vehDist71" speed="4.151706" pos="17.664843" lane="824274199#0_0" slope="0.000000"/>
    </timestep>
    <timestep time="8.00">
        <vehicle id="flow_0.0" x="13.451300" y="52.501608" angle="296.453267" type="vehDist71" speed="4.623099" pos="22.287942" lane="824274199#0_0" slope="0.000000"/>
    </timestep>
    <timestep time="9.00">
        <vehicle id="flow_0.0" x="13.451233" y="52.501628" angle="296.453267" type="vehDist71" speed="5.046253" pos="27.334195" lane="824274199#0_0" slope="0.000000"/>
    </timestep>
    <timestep time="10.00">
        <vehicle id="flow_0.0" x="13.451157" y="52.501650" angle="296.453267" type="vehDist71" speed="5.693628" pos="33.027823" lane="824274199#0_0" slope="0.000000"/>
    </timestep>
    <timestep time="11.00">
        <vehicle id="flow_0.0" x="13.451072" y="52.501674" angle="296.453267" type="vehDist71" speed="6.419155" pos="39.446979" lane="824274199#0_0" slope="0.000000"/>
    </timestep>
    <timestep time="12.00">
        <vehicle id="flow_0.0" x="13.450980" y="52.501701" angle="296.362772" type="vehDist71" speed="6.889467" pos="2.406445" lane=":3423563318_0_0" slope="0.000000"/>
    </timestep>
    <timestep time="13.00">
        <vehicle id="flow_0.0" x="13.450880" y="52.501729" angle="296.262394" type="vehDist71" speed="7.477477" pos="4.843922" lane="824274199#2_0" slope="0.000000"/>
    </timestep>
    <timestep time="14.00">
        <vehicle id="flow_0.0" x="13.450770" y="52.501760" angle="294.967418" type="vehDist71" speed="8.140646" pos="0.834568" lane="36920052#0_0" slope="0.000000"/>
    </timestep>
    <timestep time="15.00">
        <vehicle id="flow_0.0" x="13.450649" y="52.501792" angle="294.576059" type="vehDist71" speed="8.902174" pos="9.736742" lane="36920052#0_0" slope="0.000000"/>
    </timestep>
    <timestep time="16.00">
        <vehicle id="flow_0.0" x="13.450519" y="52.501826" angle="294.702430" type="vehDist71" speed="9.648486" pos="4.305228" lane=":3423563401_0_0" slope="0.000000"/>
    </timestep>
    <timestep time="17.00">
        <vehicle id="flow_0.0" x="13.450389" y="52.501861" angle="294.817785" type="vehDist71" speed="9.614002" pos="8.939230" lane="36920052#1_0" slope="0.000000"/>
    </timestep>
    <timestep time="18.00">
        <vehicle id="flow_0.0" x="13.450257" y="52.501896" angle="294.817785" type="vehDist71" speed="9.775033" pos="18.714263" lane="36920052#1_0" slope="0.000000"/>
    </timestep>
    <timestep time="19.00">
        <vehicle id="flow_0.0" x="13.450127" y="52.501931" angle="294.817785" type="vehDist71" speed="9.669032" pos="28.383295" lane="36920052#1_0" slope="0.000000"/>
    </timestep>
    <timestep time="20.00">
        <vehicle id="flow_0.0" x="13.449994" y="52.501966" angle="294.817785" type="vehDist71" speed="9.836237" pos="38.219532" lane="36920052#1_0" slope="0.000000"/>
    </timestep>
    <timestep time="21.00">
        <vehicle id="flow_0.0" x="13.449860" y="52.502002" angle="294.817785" type="vehDist71" speed="9.907299" pos="48.126832" lane="36920052#1_0" slope="0.000000"/>
    </timestep>
    <timestep time="22.00">
        <vehicle id="flow_0.0" x="13.449730" y="52.502037" angle="294.817785" type="vehDist71" speed="9.685318" pos="57.812149" lane="36920052#1_0" slope="0.000000"/>
    </timestep>
    <timestep time="23.00">
        <vehicle id="flow_0.0" x="13.449597" y="52.502072" angle="294.817785" type="vehDist71" speed="9.797030" pos="67.609180" lane="36920052#1_0" slope="0.000000"/>
    </timestep>
    <timestep time="24.00">
        <vehicle id="flow_0.0" x="13.449467" y="52.502107" angle="294.817785" type="vehDist71" speed="9.640228" pos="77.249408" lane="36920052#1_0" slope="0.000000"/>
    </timestep>
    <timestep time="25.00">
        <vehicle id="flow_0.0" x="13.449338" y="52.502141" angle="294.817785" type="vehDist71" speed="9.554167" pos="86.803574" lane="36920052#1_0" slope="0.000000"/>
    </timestep>
    <timestep time="26.00">
        <vehicle id="flow_0.0" x="13.449205" y="52.502177" angle="295.271091" type="vehDist71" speed="9.914913" pos="9.158488" lane="36920052#2_0" slope="0.000000"/>
    </timestep>
    <timestep time="27.00">
        <vehicle id="flow_0.0" x="13.449077" y="52.502212" angle="295.271091" type="vehDist71" speed="9.537064" pos="18.695552" lane="36920052#2_0" slope="0.000000"/>
    </timestep>
    <timestep time="28.00">
        <vehicle id="flow_0.0" x="13.448944" y="52.502248" angle="295.271091" type="vehDist71" speed="9.885529" pos="28.581081" lane="36920052#2_0" slope="0.000000"/>
    </timestep>
    <timestep time="29.00">
        <vehicle id="flow_0.0" x="13.448812" y="52.502284" angle="295.271091" type="vehDist71" speed="9.816749" pos="38.397829" lane="36920052#2_0" slope="0.000000"/>
    </timestep>
    <timestep time="30.00">
        <vehicle id="flow_0.0" x="13.448682" y="52.502320" angle="295.271091" type="vehDist71" speed="9.676164" pos="48.073993" lane="36920052#2_0" slope="0.000000"/>
    </timestep>
    <timestep time="31.00">
        <vehicle id="flow_0.0" x="13.448550" y="52.502355" angle="295.271091" type="vehDist71" speed="9.808417" pos="57.882410" lane="36920052#2_0" slope="0.000000"/>
    </timestep>
    <timestep time="32.00">
        <vehicle id="flow_0.0" x="13.448416" y="52.502392" angle="295.271091" type="vehDist71" speed="9.911216" pos="67.793626" lane="36920052#2_0" slope="0.000000"/>
    </timestep>
    <timestep time="33.00">
        <vehicle id="flow_0.0" x="13.448284" y="52.502428" angle="295.271091" type="vehDist71" speed="9.831876" pos="77.625502" lane="36920052#2_0" slope="0.000000"/>
    </timestep>
    <timestep time="34.00">
        <vehicle id="flow_0.0" x="13.448153" y="52.502463" angle="295.271091" type="vehDist71" speed="9.764615" pos="87.390117" lane="36920052#2_0" slope="0.000000"/>
    </timestep>
    <timestep time="35.00">
        <vehicle id="flow_0.0" x="13.448023" y="52.502499" angle="295.271091" type="vehDist71" speed="9.623709" pos="97.013826" lane="36920052#2_0" slope="0.000000"/>
    </timestep>
    <timestep time="36.00">
        <vehicle id="flow_0.0" x="13.447895" y="52.502534" angle="296.076130" type="vehDist71" speed="9.558582" pos="0.222408" lane=":29785478_0_0" slope="0.000000"/>
    </timestep>
    <timestep time="37.00">
        <vehicle id="flow_0.0" x="13.447778" y="52.502581" angle="295.279085" type="vehDist71" speed="9.913925" pos="1.626333" lane="838658279_0" slope="0.000000"/>
    </timestep>
    <timestep time="38.00">
        <vehicle id="flow_0.0" x="13.447645" y="52.502617" angle="291.962002" type="vehDist71" speed="9.838310" pos="0.904644" lane=":7826853437_0_0" slope="0.000000"/>
    </timestep>
    <timestep time="39.00">
        <vehicle id="flow_0.0" x="13.447508" y="52.502639" angle="295.276861" type="vehDist71" speed="9.679951" pos="2.374595" lane="421557812#0_0" slope="0.000000"/>
    </timestep>
    <timestep time="40.00">
        <vehicle id="flow_0.0" x="13.447378" y="52.502674" angle="295.276861" type="vehDist71" speed="9.653835" pos="12.028430" lane="421557812#0_0" slope="0.000000"/>
        <vehicle id="flow_0.1" x="13.451575" y="52.501530" angle="296.453267" type="vehDist4" speed="0.000000" pos="1.700000" lane="824274199#0_0" slope="0.000000"/>
    </timestep>
    <timestep time="41.00">
        <vehicle id="flow_0.0" x="13.447251" y="52.502709" angle="295.276861" type="vehDist71" speed="9.462438" pos="21.490869" lane="421557812#0_0" slope="0.000000"/>
        <vehicle id="flow_0.1" x="13.451569" y="52.501531" angle="296.453267" type="vehDist4" speed="0.431059" pos="2.131059" lane="824274199#0_0" slope="0.000000"/>
    </timestep>
    <timestep time="42.00">
        <vehicle id="flow_0.0" x="13.447164" y="52.502733" angle="295.276861" type="vehDist71" speed="6.462438" pos="27.953307" lane="421557812#0_0" slope="0.000000"/>
        <vehicle id="flow_0.1" x="13.451557" y="52.501535" angle="296.453267" type="vehDist4" speed="0.891819" pos="3.022878" lane="824274199#0_0" slope="0.000000"/>
    </timestep>
    <timestep time="43.00">
        <vehicle id="flow_0.0" x="13.447117" y="52.502746" angle="295.276861" type="vehDist71" speed="3.462438" pos="31.415745" lane="421557812#0_0" slope="0.000000"/>
        <vehicle id="flow_0.1" x="13.451538" y="52.501540" angle="296.453267" type="vehDist4" speed="1.403239" pos="4.426117" lane="824274199#0_0" slope="0.000000"/>
    </timestep>
    <timestep time="44.00">
        <vehicle id="flow_0.0" x="13.447105" y="52.502749" angle="295.276861" type="vehDist71" speed="0.934815" pos="32.350560" lane="421557812#0_0" slope="0.000000"/>
        <vehicle id="flow_0.1" x="13.451515" y="52.501547" angle="296.453267" type="vehDist4" speed="1.785186" pos="6.211303" lane="824274199#0_0" slope="0.000000"/>
    </timestep>
    <timestep time="45.00">
        <vehicle id="flow_0.0" x="13.447104" y="52.502749" angle="295.276861" type="vehDist71" speed="0.008192" pos="32.358752" lane="421557812#0_0" slope="0.000000"/>
        <vehicle id="flow_0.1" x="13.451487" y="52.501555" angle="296.453267" type="vehDist4" speed="2.100967" pos="8.312270" lane="824274199#0_0" slope="0.000000"/>
    </timestep>
    <timestep time="46.00">
        <vehicle id="flow_0.0" x="13.447104" y="52.502749" angle="295.276861" type="vehDist71" speed="0.000137" pos="32.358889" lane="421557812#0_0" slope="0.000000"/>
        <vehicle id="flow_0.1" x="13.451454" y="52.501564" angle="296.453267" type="vehDist4" speed="2.419628" pos="10.731898" lane="824274199#0_0" slope="0.000000"/>
    </timestep>
    <timestep time="47.00">
        <vehicle id="flow_0.0" x="13.447104" y="52.502749" angle="295.276861" type="vehDist71" speed="0.000000" pos="32.358889" lane="421557812#0_0" slope="0.000000"/>
        <vehicle id="flow_0.1" x="13.451417" y="52.501575" angle="296.453267" type="vehDist4" speed="2.793522" pos="13.525420" lane="824274199#0_0" slope="0.000000"/>
    </timestep>
    <timestep time="48.00">
        <vehicle id="flow_0.0" x="13.447104" y="52.502749" angle="295.276861" type="vehDist71" speed="0.000000" pos="32.358889" lane="421557812#0_0" slope="0.000000"/>
        <vehicle id="flow_0.1" x="13.451373" y="52.501588" angle="296.453267" type="vehDist4" speed="3.337047" pos="16.862467" lane="824274199#0_0" slope="0.000000"/>
    </timestep>
    <timestep time="49.00">
        <vehicle id="flow_0.0" x="13.447104" y="52.502749" angle="295.276861" type="vehDist71" speed="0.000000" pos="32.358889" lane="421557812#0_0" slope="0.000000"/>
        <vehicle id="flow_0.1" x="13.451323" y="52.501602" angle="296.453267" type="vehDist4" speed="3.710673" pos="20.573140" lane="824274199#0_0" slope="0.000000"/>
    </timestep>
    <timestep time="50.00">
        <vehicle id="flow_0.0" x="13.447104" y="52.502749" angle="295.276861" type="vehDist71" speed="0.000000" pos="32.358889" lane="421557812#0_0" slope="0.000000"/>
        <vehicle id="flow_0.1" x="13.451266" y="52.501618" angle="296.453267" type="vehDist4" speed="4.257195" pos="24.830335" lane="824274199#0_0" slope="0.000000"/>
    </timestep>
    <timestep time="51.00">
        <vehicle id="flow_0.0" x="13.447104" y="52.502749" angle="295.276861" type="vehDist71" speed="0.000000" pos="32.358889" lane="421557812#0_0" slope="0.000000"/>
        <vehicle id="flow_0.1" x="13.451203" y="52.501636" angle="296.453267" type="vehDist4" speed="4.750662" pos="29.580997" lane="824274199#0_0" slope="0.000000"/>
    </timestep>
    <timestep time="52.00">
        <vehicle id="flow_0.0" x="13.447104" y="52.502749" angle="295.276861" type="vehDist71" speed="0.000105" pos="32.358995" lane="421557812#0_0" slope="0.000000"/>
        <vehicle id="flow_0.1" x="13.451133" y="52.501656" angle="296.453267" type="vehDist4" speed="5.241934" pos="34.822931" lane="824274199#0_0" slope="0.000000"/>
    </timestep>
    <timestep time="53.00">
        <vehicle id="flow_0.0" x="13.447104" y="52.502749" angle="295.276861" type="vehDist71" speed="0.000000" pos="32.358995" lane="421557812#0_0" slope="0.000000"/>
        <vehicle id="flow_0.1" x="13.451059" y="52.501678" angle="296.453267" type="vehDist4" speed="5.593274" pos="40.416205" lane="824274199#0_0" slope="0.000000"/>
    </timestep>
    <timestep time="54.00">
        <vehicle id="flow_0.0" x="13.447104" y="52.502749" angle="295.276861" type="vehDist71" speed="0.000000" pos="32.358995" lane="421557812#0_0" slope="0.000000"/>
        <vehicle id="flow_0.1" x="13.450981" y="52.501700" angle="296.362772" type="vehDist4" speed="5.818430" pos="2.304636" lane=":3423563318_0_0" slope="0.000000"/>
    </timestep>
    <timestep time="55.00">
        <vehicle id="flow_0.0" x="13.447104" y="52.502749" angle="295.276861" type="vehDist71" speed="0.000000" pos="32.358995" lane="421557812#0_0" slope="0.000000"/>
        <vehicle id="flow_0.1" x="13.450905" y="52.501722" angle="296.262394" type="vehDist4" speed="5.752893" pos="3.017529" lane="824274199#2_0" slope="0.000000"/>
    </timestep>
    <timestep time="56.00">
        <vehicle id="flow_0.0" x="13.447104" y="52.502749" angle="295.276861" type="vehDist71" speed="0.000000" pos="32.358995" lane="421557812#0_0" slope="0.000000"/>
        <vehicle id="flow_0.1" x="13.450825" y="52.501745" angle="296.262394" type="vehDist4" speed="5.984396" pos="9.001925" lane="824274199#2_0" slope="0.000000"/>
    </timestep>
    <timestep time="57.00">
        <vehicle id="flow_0.0" x="13.447104" y="52.502749" angle="295.276861" type="vehDist71" speed="0.000000" pos="32.358995" lane="421557812#0_0" slope="0.000000"/>
        <vehicle id="flow_0.1" x="13.450746" y="52.501766" angle="294.576059" type="vehDist4" speed="5.730902" pos="2.582827" lane="36920052#0_0" slope="0.000000"/>
    </timestep>
    <timestep time="58.00">
        <vehicle id="flow_0.0" x="13.447104" y="52.502749" angle="295.276861" type="vehDist71" speed="0.000000" pos="32.358995" lane="421557812#0_0" slope="0.000000"/>
        <vehicle id="flow_0.1" x="13.450665" y="52.501788" angle="294.576059" type="vehDist4" speed="5.992638" pos="8.575466" lane="36920052#0_0" slope="0.000000"/>
    </timestep>
    <timestep time="59.00">
        <vehicle id="flow_0.0" x="13.447104" y="52.502749" angle="295.276861" type="vehDist71" speed="0.000000" pos="32.358995" lane="421557812#0_0" slope="0.000000"/>
        <vehicle id="flow_0.1" x="13.450584" y="52.501809" angle="294.576059" type="vehDist4" speed="6.006903" pos="14.582368" lane="36920052#0_0" slope="0.000000"/>
    </timestep>
    <timestep time="60.00">
        <vehicle id="flow_0.0" x="13.447104" y="52.502749" angle="295.276861" type="vehDist71" speed="0.000000" pos="32.358995" lane="421557812#0_0" slope="0.000000"/>
        <vehicle id="flow_0.1" x="13.450504" y="52.501830" angle="294.735234" type="vehDist4" speed="5.930883" pos="0.453251" lane="36920052#1_0" slope="0.000000"/>
    </timestep>
    <timestep time="61.00">
        <vehicle id="flow_0.0" x="13.447104" y="52.502749" angle="295.276861" type="vehDist71" speed="0.000000" pos="32.358995" lane="421557812#0_0" slope="0.000000"/>
        <vehicle id="flow_0.1" x="13.450426" y="52.501851" angle="294.817785" type="vehDist4" speed="5.803703" pos="6.256954" lane="36920052#1_0" slope="0.000000"/>
    </timestep>
    <timestep time="62.00">
        <vehicle id="flow_0.0" x="13.447104" y="52.502749" angle="295.276861" type="vehDist71" speed="0.000000" pos="32.358995" lane="421557812#0_0" slope="0.000000"/>
        <vehicle id="flow_0.1" x="13.450346" y="52.501872" angle="294.817785" type="vehDist4" speed="5.874989" pos="12.131943" lane="36920052#1_0" slope="0.000000"/>
    </timestep>
    <timestep time="63.00">
        <vehicle id="flow_0.0" x="13.447104" y="52.502749" angle="295.276861" type="vehDist71" speed="0.000000" pos="32.358995" lane="421557812#0_0" slope="0.000000"/>
        <vehicle id="flow_0.1" x="13.450266" y="52.501894" angle="294.817785" type="vehDist4" speed="5.921416" pos="18.053359" lane="36920052#1_0" slope="0.000000"/>
    </timestep>
    <timestep time="64.00">
        <vehicle id="flow_0.0" x="13.447104" y="52.502749" angle="295.276861" type="vehDist71" speed="0.000000" pos="32.358995" lane="421557812#0_0" slope="0.000000"/>
        <vehicle id="flow_0.1" x="13.450186" y="52.501915" angle="294.817785" type="vehDist4" speed="5.940285" pos="23.993644" lane="36920052#1_0" slope="0.000000"/>
    </timestep>
    <timestep time="65.00">
        <vehicle id="flow_0.0" x="13.447104" y="52.502749" angle="295.276861" type="vehDist71" speed="0.000000" pos="32.358995" lane="421557812#0_0" slope="0.000000"/>
        <vehicle id="flow_0.1" x="13.450107" y="52.501936" angle="294.817785" type="vehDist4" speed="5.862190" pos="29.855834" lane="36920052#1_0" slope="0.000000"/>
    </timestep>
    <timestep time="66.00">
        <vehicle id="flow_0.0" x="13.447104" y="52.502749" angle="295.276861" type="vehDist71" speed="0.000000" pos="32.358995" lane="421557812#0_0" slope="0.000000"/>
        <vehicle id="flow_0.1" x="13.450028" y="52.501957" angle="294.817785" type="vehDist4" speed="5.841605" pos="35.697438" lane="36920052#1_0" slope="0.000000"/>
    </timestep>
    <timestep time="67.00">
        <vehicle id="flow_0.0" x="13.447104" y="52.502749" angle="295.276861" type="vehDist71" speed="0.000000" pos="32.358995" lane="421557812#0_0" slope="0.000000"/>
        <vehicle id="flow_0.1" x="13.449947" y="52.501979" angle="294.817785" type="vehDist4" speed="6.002637" pos="41.700075" lane="36920052#1_0" slope="0.000000"/>
    </timestep>
    <timestep time="68.00">
        <vehicle id="flow_0.0" x="13.447104" y="52.502749" angle="295.276861" type="vehDist71" speed="0.000000" pos="32.358995" lane="421557812#0_0" slope="0.000000"/>
        <vehicle id="flow_0.1" x="13.449866" y="52.502000" angle="294.817785" type="vehDist4" speed="5.984133" pos="47.684208" lane="36920052#1_0" slope="0.000000"/>
    </timestep>
    <timestep time="69.00">
        <vehicle id="flow_0.0" x="13.447104" y="52.502749" angle="295.276861" type="vehDist71" speed="0.000000" pos="32.358995" lane="421557812#0_0" slope="0.000000"/>
        <vehicle id="flow_0.1" x="13.449787" y="52.502021" angle="294.817785" type="vehDist4" speed="5.870323" pos="53.554531" lane="36920052#1_0" slope="0.000000"/>
    </timestep>
    <timestep time="70.00">
        <vehicle id="flow_0.0" x="13.447104" y="52.502749" angle="295.276861" type="vehDist71" speed="0.000000" pos="32.358995" lane="421557812#0_0" slope="0.000000"/>
        <vehicle id="flow_0.1" x="13.449708" y="52.502042" angle="294.817785" type="vehDist4" speed="5.827831" pos="59.382362" lane="36920052#1_0" slope="0.000000"/>
    </timestep>
    <timestep time="71.00">
        <vehicle id="flow_0.0" x="13.447104" y="52.502749" angle="295.276861" type="vehDist71" speed="0.000000" pos="32.358995" lane="421557812#0_0" slope="0.000000"/>
        <vehicle id="flow_0.1" x="13.449629" y="52.502063" angle="294.817785" type="vehDist4" speed="5.858363" pos="65.240725" lane="36920052#1_0" slope="0.000000"/>
    </timestep>
    <timestep time="72.00">
        <vehicle id="flow_0.0" x="13.447104" y="52.502749" angle="295.276861" type="vehDist71" speed="0.000000" pos="32.358995" lane="421557812#0_0" slope="0.000000"/>
        <vehicle id="flow_0.1" x="13.449550" y="52.502084" angle="294.817785" type="vehDist4" speed="5.850194" pos="71.090919" lane="36920052#1_0" slope="0.000000"/>
    </timestep>
    <timestep time="73.00">
        <vehicle id="flow_0.0" x="13.447104" y="52.502749" angle="295.276861" type="vehDist71" speed="0.000000" pos="32.358995" lane="421557812#0_0" slope="0.000000"/>
        <vehicle id="flow_0.1" x="13.449472" y="52.502105" angle="294.817785" type="vehDist4" speed="5.801705" pos="76.892624" lane="36920052#1_0" slope="0.000000"/>
    </timestep>
    <timestep time="74.00">
        <vehicle id="flow_0.0" x="13.447104" y="52.502749" angle="295.276861" type="vehDist71" speed="0.000000" pos="32.358995" lane="421557812#0_0" slope="0.000000"/>
        <vehicle id="flow_0.1" x="13.449392" y="52.502127" angle="294.817785" type="vehDist4" speed="5.959148" pos="82.851771" lane="36920052#1_0" slope="0.000000"/>
    </timestep>
    <timestep time="75.00">
        <vehicle id="flow_0.0" x="13.447104" y="52.502749" angle="295.276861" type="vehDist71" speed="0.000000" pos="32.358995" lane="421557812#0_0" slope="0.000000"/>
        <vehicle id="flow_0.1" x="13.449311" y="52.502148" angle="295.159978" type="vehDist4" speed="6.009536" pos="1.301308" lane="36920052#2_0" slope="0.000000"/>
    </timestep>
    <timestep time="76.00">
        <vehicle id="flow_0.0" x="13.447104" y="52.502749" angle="295.276861" type="vehDist71" speed="0.000000" pos="32.358995" lane="421557812#0_0" slope="0.000000"/>
        <vehicle id="flow_0.1" x="13.449232" y="52.502170" angle="295.271091" type="vehDist4" speed="5.848756" pos="7.150064" lane="36920052#2_0" slope="0.000000"/>
    </timestep>
    <timestep time="77.00">
        <vehicle id="flow_0.0" x="13.447104" y="52.502749" angle="295.276861" type="vehDist71" speed="0.000000" pos="32.358995" lane="421557812#0_0" slope="0.000000"/>
        <vehicle id="flow_0.1" x="13.449155" y="52.502191" angle="295.271091" type="vehDist4" speed="5.747289" pos="12.897352" lane="36920052#2_0" slope="0.000000"/>
    </timestep>
    <timestep time="78.00">
        <vehicle id="flow_0.0" x="13.447104" y="52.502749" angle="295.276861" type="vehDist71" speed="0.000000" pos="32.358995" lane="421557812#0_0" slope="0.000000"/>
        <vehicle id="flow_0.1" x="13.449075" y="52.502213" angle="295.271091" type="vehDist4" speed="5.956392" pos="18.853745" lane="36920052#2_0" slope="0.000000"/>
    </timestep>
    <timestep time="79.00">
        <vehicle id="flow_0.0" x="13.447104" y="52.502749" angle="295.276861" type="vehDist71" speed="0.000000" pos="32.358995" lane="421557812#0_0" slope="0.000000"/>
        <vehicle id="flow_0.1" x="13.448996" y="52.502234" angle="295.271091" type="vehDist4" speed="5.828707" pos="24.682451" lane="36920052#2_0" slope="0.000000"/>
    </timestep>
    <timestep time="80.00">
        <vehicle id="flow_0.0" x="13.447104" y="52.502749" angle="295.276861" type="vehDist71" speed="0.000000" pos="32.358995" lane="421557812#0_0" slope="0.000000"/>
        <vehicle id="flow_0.1" x="13.448916" y="52.502256" angle="295.271091" type="vehDist4" speed="5.943465" pos="30.625916" lane="36920052#2_0" slope="0.000000"/>
        <vehicle id="flow_0.2" x="13.451575" y="52.501530" angle="296.453267" type="vehDist49" speed="0.000000" pos="1.700000" lane="824274199#0_0" slope="0.000000"/>
    </timestep>
    <timestep time="81.00">
        <vehicle id="flow_0.0" x="13.447104" y="52.502749" angle="295.276861" type="vehDist71" speed="0.000000" pos="32.358995" lane="421557812#0_0" slope="0.000000"/>
        <vehicle id="flow_0.1" x="13.448839" y="52.502277" angle="295.271091" type="vehDist4" speed="5.782793" pos="36.408709" lane="36920052#2_0" slope="0.000000"/>
        <vehicle id="flow_0.2" x="13.451561" y="52.501533" angle="296.453267" type="vehDist49" speed="1.012067" pos="2.712067" lane="824274199#0_0" slope="0.000000"/>
    </timestep>
    <timestep time="82.00">
        <vehicle id="flow_0.0" x="13.447104" y="52.502749" angle="295.276861" type="vehDist71" speed="0.000000" pos="32.358995" lane="421557812#0_0" slope="0.000000"/>
        <vehicle id="flow_0.1" x="13.448759" y="52.502299" angle="295.271091" type="vehDist4" speed="5.953658" pos="42.362367" lane="36920052#2_0" slope="0.000000"/>
        <vehicle id="flow_0.2" x="13.451535" y="52.501541" angle="296.453267" type="vehDist49" speed="1.991087" pos="4.703154" lane="824274199#0_0" slope="0.000000"/>
    </timestep>
    <timestep time="83.00">
        <vehicle id="flow_0.0" x="13.447104" y="52.502749" angle="295.276861" type="vehDist71" speed="0.000000" pos="32.358995" lane="421557812#0_0" slope="0.000000"/>
        <vehicle id="flow_0.1" x="13.448678" y="52.502321" angle="295.271091" type="vehDist4" speed="5.999889" pos="48.362256" lane="36920052#2_0" slope="0.000000"/>
        <vehicle id="flow_0.2" x="13.451495" y="52.501553" angle="296.453267" type="vehDist49" speed="2.987711" pos="7.690865" lane="824274199#0_0" slope="0.000000"/>
    </timestep>
    <timestep time="84.00">
        <vehicle id="flow_0.0" x="13.447104" y="52.502749" angle="295.276861" type="vehDist71" speed="0.000000" pos="32.358995" lane="421557812#0_0" slope="0.000000"/>
        <vehicle id="flow_0.1" x="13.448597" y="52.502342" angle="295.271091" type="vehDist4" speed="5.978213" pos="54.340469" lane="36920052#2_0" slope="0.000000"/>
        <vehicle id="flow_0.2" x="13.451447" y="52.501566" angle="296.453267" type="vehDist49" speed="3.621633" pos="11.312499" lane="824274199#0_0" slope="0.000000"/>
    </timestep>
    <timestep time="85.00">
        <vehicle id="flow_0.0" x="13.447104" y="52.502749" angle="295.276861" type="vehDist71" speed="0.000000" pos="32.358995" lane="421557812#0_0" slope="0.000000"/>
        <vehicle id="flow_0.1" x="13.448519" y="52.502364" angle="295.271091" type="vehDist4" speed="5.857046" pos="60.197515" lane="36920052#2_0" slope="0.000000"/>
        <vehicle id="flow_0.2" x="13.451387" y="52.501583" angle="296.453267" type="vehDist49" speed="4.443292" pos="15.755790" lane="824274199#0_0" slope="0.000000"/>
    </timestep>
    <timestep time="86.00">
        <vehicle id="flow_0.0" x="13.447104" y="52.502749" angle="295.276861" type="vehDist71" speed="0.000000" pos="32.358995" lane="421557812#0_0" slope="0.000000"/>
        <vehicle id="flow_0.1" x="13.448440" y="52.502385" angle="295.271091" type="vehDist4" speed="5.848100" pos="66.045615" lane="36920052#2_0" slope="0.000000"/>
        <vehicle id="flow_0.2" x="13.451321" y="52.501603" angle="296.453267" type="vehDist49" speed="5.017094" pos="20.772884" lane="824274199#0_0" slope="0.000000"/>
    </timestep>
    <timestep time="87.00">
        <vehicle id="flow_0.0" x="13.447104" y="52.502749" angle="295.276861" type="vehDist71" speed="0.000000" pos="32.358995" lane="421557812#0_0" slope="0.000000"/>
        <vehicle id="flow_0.1" x="13.448360" y="52.502407" angle="295.271091" type="vehDist4" speed="5.929349" pos="71.974964" lane="36920052#2_0" slope="0.000000"/>
        <vehicle id="flow_0.2" x="13.451246" y="52.501624" angle="296.453267" type="vehDist49" speed="5.594386" pos="26.367270" lane="824274199#0_0" slope="0.000000"/>
    </timestep>
    <timestep time="88.00">
        <vehicle id="flow_0.0" x="13.447104" y="52.502749" angle="295.276861" type="vehDist71" speed="0.000000" pos="32.358995" lane="421557812#0_0" slope="0.000000"/>
        <vehicle id="flow_0.1" x="13.448282" y="52.502428" angle="295.271091" type="vehDist4" speed="5.788723" pos="77.763687" lane="36920052#2_0" slope="0.000000"/>
        <vehicle id="flow_0.2" x="13.451161" y="52.501648" angle="296.453267" type="vehDist49" speed="6.356342" pos="32.723612" lane="824274199#0_0" slope="0.000000"/>
    </timestep>
    <timestep time="89.00">
        <vehicle id="flow_0.0" x="13.447104" y="52.502749" angle="295.276861" type="vehDist71" speed="0.000000" pos="32.358995" lane="421557812#0_0" slope="0.000000"/>
        <vehicle id="flow_0.1" x="13.448203" y="52.502450" angle="295.271091" type="vehDist4" speed="5.888426" pos="83.652112" lane="36920052#2_0" slope="0.000000"/>
        <vehicle id="flow_0.2" x="13.451095" y="52.501667" angle="296.453267" type="vehDist49" speed="4.948417" pos="37.672029" lane="824274199#0_0" slope="0.000000"/>
    </timestep>
    <timestep time="90.00">