<?xml version="1.0" encoding="UTF-8"?>

<!-- generated on Wed Jun  2 11:48:13 2021 by Eclipse SUMO sumo Version v1_7_0+1228-0b1a97d77e
<configuration xmlns:xsi="http://www.w3.org/2001/XMLSchema-instance" xsi:noNamespaceSchemaLocation="http://sumo.dlr.de/xsd/sumoConfiguration.xsd">

    <input>
        <net-file value="osm.net.xml"/>
        <route-files value="stralauer.trips.xml"/>
    </input>

    <output>
        <fcd-output value="fcd_out.xml"/>
        <fcd-output.geo value="true"/>
    </output>

    <time>
        <begin value="0"/>
        <end value="8000"/>
    </time>

    <fcd_device>
        <device.fcd.explicit value="vehDist"/>
    </fcd_device>

</configuration>
-->

<fcd-export xmlns:xsi="http://www.w3.org/2001/XMLSchema-instance" xsi:noNamespaceSchemaLocation="http://sumo.dlr.de/xsd/fcd_file.xsd">
    <timestep time="0.00">
        <vehicle id="flow_0.0" x="13.451575" y="52.501530" angle="296.453267" type="vehDist71" speed="0.000000" pos="1.700000" lane="824274199#0_0" slope="0.000000"/>
    </timestep>
    <timestep time="1.00">
        <vehicle id="flow_0.0" x="13.451564" y="52.501533" angle="296.453267" type="vehDist71" speed="0.796698" pos="2.496698" lane="824274199#0_0" slope="0.000000"/>
    </timestep>
    <timestep time="2.00">
        <vehicle id="flow_0.0" x="13.451540" y="52.501539" angle="296.453267" type="vehDist71" speed="1.782239" pos="4.278938" lane="824274199#0_0" slope="0.000000"/>
    </timestep>
    <timestep time="3.00">
        <vehicle id="flow_0.0" x="13.451509" y="52.501548" angle="296.453267" type="vehDist71" speed="2.340508" pos="6.619445" lane="824274199#0_0" slope="0.000000"/>
    </timestep>
    <timestep time="4.00">
        <vehicle id="flow_0.0" x="13.451470" y="52.501560" angle="296.453267" type="vehDist71" speed="2.926326" pos="9.545771" lane="824274199#0_0" slope="0.000000"/>
    </timestep>
    <timestep time="5.00">
        <vehicle id="flow_0.0" x="13.451417" y="52.501575" angle="296.453267" type="vehDist71" speed="3.974561" pos="13.520333" lane="824274199#0_0" slope="0.000000"/>
    </timestep>
    <timestep time="6.00">
        <vehicle id="flow_0.0" x="13.451350" y="52.501594" angle="296.453267" type="vehDist71" speed="5.044576" pos="18.564909" lane="824274199#0_0" slope="0.000000"/>
    </timestep>
    <timestep time="7.00">
        <vehicle id="flow_0.0" x="13.451271" y="52.501617" angle="296.453267" type="vehDist71" speed="5.927142" pos="24.492051" lane="824274199#0_0" slope="0.000000"/>
    </timestep>
    <timestep time="8.00">
        <vehicle id="flow_0.0" x="13.451183" y="52.501642" angle="296.453267" type="vehDist71" speed="6.600122" pos="31.092173" lane="824274199#0_0" slope="0.000000"/>
    </timestep>
    <timestep time="9.00">
        <vehicle id="flow_0.0" x="13.451096" y="52.501667" angle="296.453267" type="vehDist71" speed="6.534111" pos="37.626284" lane="824274199#0_0" slope="0.000000"/>
    </timestep>
    <timestep time="10.00">
        <vehicle id="flow_0.0" x="13.451005" y="52.501693" angle="296.495215" type="vehDist71" speed="6.854219" pos="0.550503" lane=":3423563318_0_0" slope="0.000000"/>
    </timestep>
    <timestep time="11.00">
        <vehicle id="flow_0.0" x="13.450914" y="52.501719" angle="296.262394" type="vehDist71" speed="6.769467" pos="2.279970" lane="824274199#2_0" slope="0.000000"/>
    </timestep>
    <timestep time="12.00">
        <vehicle id="flow_0.0" x="13.450823" y="52.501745" angle="296.262394" type="vehDist71" speed="6.876767" pos="9.156737" lane="824274199#2_0" slope="0.000000"/>
    </timestep>
    <timestep time="13.00">
        <vehicle id="flow_0.0" x="13.450727" y="52.501771" angle="294.576059" type="vehDist71" speed="6.972706" pos="3.979443" lane="36920052#0_0" slope="0.000000"/>
    </timestep>
    <timestep time="14.00">
        <vehicle id="flow_0.0" x="13.450632" y="52.501796" angle="294.576059" type="vehDist71" speed="7.017188" pos="10.996631" lane="36920052#0_0" slope="0.000000"/>
    </timestep>
    <timestep time="15.00">
        <vehicle id="flow_0.0" x="13.450538" y="52.501821" angle="294.702430" type="vehDist71" speed="6.995465" pos="2.912096" lane=":3423563401_0_0" slope="0.000000"/>
    </timestep>
    <timestep time="16.00">
        <vehicle id="flow_0.0" x="13.450449" y="52.501845" angle="294.817785" type="vehDist71" speed="6.595284" pos="4.527380" lane="36920052#1_0" slope="0.000000"/>
    </timestep>
    <timestep time="17.00">
        <vehicle id="flow_0.0" x="13.450357" y="52.501869" angle="294.817785" type="vehDist71" speed="6.825177" pos="11.352556" lane="36920052#1_0" slope="0.000000"/>
    </timestep>
    <timestep time="18.00">
        <vehicle id="flow_0.0" x="13.450267" y="52.501893" angle="294.817785" type="vehDist71" speed="6.673847" pos="18.026403" lane="36920052#1_0" slope="0.000000"/>
    </timestep>
    <timestep time="19.00">
        <vehicle id="flow_0.0" x="13.450173" y="52.501918" angle="294.817785" type="vehDist71" speed="6.912555" pos="24.938958" lane="36920052#1_0" slope="0.000000"/>
    </timestep>
    <timestep time="20.00">
        <vehicle id="flow_0.0" x="13.450079" y="52.501944" angle="294.817785" type="vehDist71" speed="7.014006" pos="31.952964" lane="36920052#1_0" slope="0.000000"/>
    </timestep>
    <timestep time="21.00">
        <vehicle id="flow_0.0" x="13.449988" y="52.501968" angle="294.817785" type="vehDist71" speed="6.697097" pos="38.650061" lane="36920052#1_0" slope="0.000000"/>
    </timestep>
    <timestep time="22.00">
        <vehicle id="flow_0.0" x="13.449896" y="52.501992" angle="294.817785" type="vehDist71" speed="6.856582" pos="45.506642" lane="36920052#1_0" slope="0.000000"/>
    </timestep>
    <timestep time="23.00">
        <vehicle id="flow_0.0" x="13.449806" y="52.502016" angle="294.817785" type="vehDist71" speed="6.632724" pos="52.139367" lane="36920052#1_0" slope="0.000000"/>
    </timestep>
    <timestep time="24.00">
        <vehicle id="flow_0.0" x="13.449718" y="52.502040" angle="294.817785" type="vehDist71" speed="6.509860" pos="58.649226" lane="36920052#1_0" slope="0.000000"/>
    </timestep>
    <timestep time="25.00">
        <vehicle id="flow_0.0" x="13.449624" y="52.502065" angle="294.817785" type="vehDist71" speed="7.024876" pos="65.674103" lane="36920052#1_0" slope="0.000000"/>
    </timestep>
    <timestep time="26.00">
        <vehicle id="flow_0.0" x="13.449534" y="52.502089" angle="294.817785" type="vehDist71" speed="6.630388" pos="72.304491" lane="36920052#1_0" slope="0.000000"/>
    </timestep>
    <timestep time="27.00">
        <vehicle id="flow_0.0" x="13.449443" y="52.502113" angle="294.817785" type="vehDist71" speed="6.765438" pos="79.069929" lane="36920052#1_0" slope="0.000000"/>
    </timestep>
    <timestep time="28.00">
        <vehicle id="flow_0.0" x="13.449350" y="52.502138" angle="294.817785" type="vehDist71" speed="6.853391" pos="85.923321" lane="36920052#1_0" slope="0.000000"/>
    </timestep>
    <timestep time="29.00">
        <vehicle id="flow_0.0" x="13.449258" y="52.502163" angle="295.271091" type="vehDist71" speed="6.889139" pos="5.252460" lane="36920052#2_0" slope="0.000000"/>
    </timestep>
    <timestep time="30.00">
        <vehicle id="flow_0.0" x="13.449171" y="52.502186" angle="295.271091" type="vehDist71" speed="6.485444" pos="11.737903" lane="36920052#2_0" slope="0.000000"/>
    </timestep>
    <timestep time="31.00">
        <vehicle id="flow_0.0" x="13.449077" y="52.502212" angle="295.271091" type="vehDist71" speed="6.982926" pos="18.720829" lane="36920052#2_0" slope="0.000000"/>
    </timestep>
    <timestep time="32.00">
        <vehicle id="flow_0.0" x="13.448984" y="52.502237" angle="295.271091" type="vehDist71" speed="6.884733" pos="25.605561" lane="36920052#2_0" slope="0.000000"/>
    </timestep>
    <timestep time="33.00">
        <vehicle id="flow_0.0" x="13.448894" y="52.502262" angle="295.271091" type="vehDist71" speed="6.684028" pos="32.289589" lane="36920052#2_0" slope="0.000000"/>
    </timestep>
    <timestep time="34.00">
        <vehicle id="flow_0.0" x="13.448802" y="52.502287" angle="295.271091" type="vehDist71" speed="6.872838" pos="39.162427" lane="36920052#2_0" slope="0.000000"/>
    </timestep>
    <timestep time="35.00">
        <vehicle id="flow_0.0" x="13.448707" y="52.502313" angle="295.271091" type="vehDist71" speed="7.019597" pos="46.182025" lane="36920052#2_0" slope="0.000000"/>
    </timestep>
    <timestep time="36.00">
        <vehicle id="flow_0.0" x="13.448614" y="52.502338" angle="295.271091" type="vehDist71" speed="6.906329" pos="53.088354" lane="36920052#2_0" slope="0.000000"/>
    </timestep>
    <timestep time="37.00">
        <vehicle id="flow_0.0" x="13.448523" y="52.502363" angle="295.271091" type="vehDist71" speed="6.810304" pos="59.898658" lane="36920052#2_0" slope="0.000000"/>
    </timestep>
    <timestep time="38.00">
        <vehicle id="flow_0.0" x="13.448434" y="52.502387" angle="295.271091" type="vehDist71" speed="6.609142" pos="66.507799" lane="36920052#2_0" slope="0.000000"/>
    </timestep>
    <timestep time="39.00">
        <vehicle id="flow_0.0" x="13.448346" y="52.502411" angle="295.271091" type="vehDist71" speed="6.516164" pos="73.023963" lane="36920052#2_0" slope="0.000000"/>
    </timestep>
    <timestep time="40.00">
        <vehicle id="flow_0.0" x="13.448256" y="52.502435" angle="295.271091" type="vehDist71" speed="6.689435" pos="79.713398" lane="36920052#2_0" slope="0.000000"/>
        <vehicle id="flow_0.1" x="13.451575" y="52.501530" angle="296.453267" type="vehDist4" speed="0.000000" pos="1.700000" lane="824274199#0_0" slope="0.000000"/>
    </timestep>
    <timestep time="41.00">
        <vehicle id="flow_0.0" x="13.448166" y="52.502460" angle="295.271091" type="vehDist71" speed="6.715740" pos="86.429138" lane="36920052#2_0" slope="0.000000"/>
        <vehicle id="flow_0.1" x="13.451562" y="52.501533" angle="296.453267" type="vehDist4" speed="0.955388" pos="2.655388" lane="824274199#0_0" slope="0.000000"/>
    </timestep>
    <timestep time="42.00">
        <vehicle id="flow_0.0" x="13.448078" y="52.502484" angle="295.271091" type="vehDist71" speed="6.523514" pos="92.952652" lane="36920052#2_0" slope="0.000000"/>
        <vehicle id="flow_0.1" x="13.451541" y="52.501539" angle="296.453267" type="vehDist4" speed="1.574703" pos="4.230091" lane="824274199#0_0" slope="0.000000"/>
    </timestep>
    <timestep time="43.00">
        <vehicle id="flow_0.0" x="13.447985" y="52.502509" angle="295.271091" type="vehDist71" speed="6.919654" pos="99.872305" lane="36920052#2_0" slope="0.000000"/>
        <vehicle id="flow_0.1" x="13.451510" y="52.501548" angle="296.453267" type="vehDist4" speed="2.327937" pos="6.558028" lane="824274199#0_0" slope="0.000000"/>
    </timestep>
    <timestep time="44.00">
        <vehicle id="flow_0.0" x="13.447895" y="52.502534" angle="295.994847" type="vehDist71" speed="6.677757" pos="0.200062" lane=":29785478_0_0" slope="0.000000"/>
        <vehicle id="flow_0.1" x="13.451468" y="52.501560" angle="296.453267" type="vehDist4" speed="3.133072" pos="9.691100" lane="824274199#0_0" slope="0.000000"/>
    </timestep>
    <timestep time="45.00">
        <vehicle id="flow_0.0" x="13.447816" y="52.502570" angle="304.472727" type="vehDist71" speed="7.023465" pos="7.223528" lane=":29785478_0_0" slope="0.000000"/>
        <vehicle id="flow_0.1" x="13.451415" y="52.501576" angle="296.453267" type="vehDist4" speed="4.026729" pos="13.717829" lane="824274199#0_0" slope="0.000000"/>
    </timestep>
    <timestep time="46.00">
        <vehicle id="flow_0.0" x="13.447725" y="52.502596" angle="295.279085" type="vehDist71" speed="6.854516" pos="5.568044" lane="838658279_0" slope="0.000000"/>
        <vehicle id="flow_0.1" x="13.451352" y="52.501594" angle="296.453267" type="vehDist4" speed="4.694146" pos="18.411975" lane="824274199#0_0" slope="0.000000"/>
    </timestep>
    <timestep time="47.00">
        <vehicle id="flow_0.0" x="13.447631" y="52.502620" angle="289.413625" type="vehDist71" speed="6.915515" pos="1.923559" lane=":7826853437_0_0" slope="0.000000"/>
        <vehicle id="flow_0.1" x="13.451282" y="52.501614" angle="296.453267" type="vehDist4" speed="5.245942" pos="23.657918" lane="824274199#0_0" slope="0.000000"/>
    </timestep>
    <timestep time="48.00">
        <vehicle id="flow_0.0" x="13.447532" y="52.502633" angle="291.596798" type="vehDist71" speed="6.895163" pos="0.608722" lane="421557812#0_0" slope="0.000000"/>
        <vehicle id="flow_0.1" x="13.451205" y="52.501636" angle="296.453267" type="vehDist4" speed="5.802773" pos="29.460691" lane="824274199#0_0" slope="0.000000"/>
    </timestep>
    <timestep time="49.00">
        <vehicle id="flow_0.0" x="13.447443" y="52.502657" angle="295.276861" type="vehDist71" speed="6.652150" pos="7.260872" lane="421557812#0_0" slope="0.000000"/>
        <vehicle id="flow_0.1" x="13.451125" y="52.501659" angle="296.453267" type="vehDist4" speed="5.984343" pos="35.445034" lane="824274199#0_0" slope="0.000000"/>
    </timestep>
    <timestep time="50.00">
        <vehicle id="flow_0.0" x="13.447350" y="52.502682" angle="295.276861" type="vehDist71" speed="6.853392" pos="14.114264" lane="421557812#0_0" slope="0.000000"/>
        <vehicle id="flow_0.1" x="13.451042" y="52.501683" angle="296.646889" type="vehDist4" speed="6.280758" pos="0.165792" lane="824274199#1_0" slope="0.000000"/>
    </timestep>
    <timestep time="51.00">
        <vehicle id="flow_0.0" x="13.447262" y="52.502706" angle="295.276861" type="vehDist71" speed="6.541056" pos="20.655320" lane="421557812#0_0" slope="0.000000"/>
        <vehicle id="flow_0.1" x="13.450960" y="52.501706" angle="296.362772" type="vehDist4" speed="6.099498" pos="3.895290" lane=":3423563318_0_0" slope="0.000000"/>
    </timestep>
    <timestep time="52.00">
        <vehicle id="flow_0.0" x="13.447176" y="52.502730" angle="295.276861" type="vehDist71" speed="6.403020" pos="27.058340" lane="421557812#0_0" slope="0.000000"/>
        <vehicle id="flow_0.1" x="13.450882" y="52.501729" angle="296.262394" type="vehDist4" speed="5.888236" pos="4.743525" lane="824274199#2_0" slope="0.000000"/>
    </timestep>
    <timestep time="53.00">
        <vehicle id="flow_0.0" x="13.447120" y="52.502745" angle="295.276861" type="vehDist71" speed="4.138281" pos="31.196621" lane="421557812#0_0" slope="0.000000"/>
        <vehicle id="flow_0.1" x="13.450804" y="52.501751" angle="296.262394" type="vehDist4" speed="5.849808" pos="10.593334" lane="824274199#2_0" slope="0.000000"/>
    </timestep>
    <timestep time="54.00">
        <vehicle id="flow_0.0" x="13.447105" y="52.502749" angle="295.276861" type="vehDist71" speed="1.138281" pos="32.334902" lane="421557812#0_0" slope="0.000000"/>
        <vehicle id="flow_0.1" x="13.450722" y="52.501773" angle="294.576059" type="vehDist4" speed="5.883655" pos="4.326989" lane="36920052#0_0" slope="0.000000"/>
    </timestep>
    <timestep time="55.00">
        <vehicle id="flow_0.0" x="13.447105" y="52.502749" angle="295.276861" type="vehDist71" speed="0.013333" pos="32.348236" lane="421557812#0_0" slope="0.000000"/>
        <vehicle id="flow_0.1" x="13.450637" y="52.501795" angle="294.576059" type="vehDist4" speed="6.307167" pos="10.634156" lane="36920052#0_0" slope="0.000000"/>
    </timestep>
    <timestep time="56.00">
        <vehicle id="flow_0.0" x="13.447104" y="52.502749" angle="295.276861" type="vehDist71" speed="0.006850" pos="32.355085" lane="421557812#0_0" slope="0.000000"/>
        <vehicle id="flow_0.1" x="13.450552" y="52.501818" angle="294.702430" type="vehDist4" speed="6.332093" pos="1.886249" lane=":3423563401_0_0" slope="0.000000"/>
    </timestep>
    <timestep time="57.00">
        <vehicle id="flow_0.0" x="13.447104" y="52.502749" angle="295.276861" type="vehDist71" speed="0.003308" pos="32.358393" lane="421557812#0_0" slope="0.000000"/>
        <vehicle id="flow_0.1" x="13.450467" y="52.501840" angle="294.817785" type="vehDist4" speed="6.254165" pos="3.160414" lane="36920052#1_0" slope="0.000000"/>
    </timestep>
    <timestep time="58.00">
        <vehicle id="flow_0.0" x="13.447104" y="52.502749" angle="295.276861" type="vehDist71" speed="0.000408" pos="32.358801" lane="421557812#0_0" slope="0.000000"/>
        <vehicle id="flow_0.1" x="13.450385" y="52.501862" angle="294.817785" type="vehDist4" speed="6.079221" pos="9.239635" lane="36920052#1_0" slope="0.000000"/>
    </timestep>
    <timestep time="59.00">
        <vehicle id="flow_0.0" x="13.447104" y="52.502749" angle="295.276861" type="vehDist71" speed="0.000112" pos="32.358913" lane="421557812#0_0" slope="0.000000"/>
        <vehicle id="flow_0.1" x="13.450304" y="52.501884" angle="294.817785" type="vehDist4" speed="6.043251" pos="15.282886" lane="36920052#1_0" slope="0.000000"/>
    </timestep>
    <timestep time="60.00">
        <vehicle id="flow_0.0" x="13.447104" y="52.502749" angle="295.276861" type="vehDist71" speed="0.000000" pos="32.358913" lane="421557812#0_0" slope="0.000000"/>
        <vehicle id="flow_0.1" x="13.450218" y="52.501906" angle="294.817785" type="vehDist4" speed="6.324638" pos="21.607524" lane="36920052#1_0" slope="0.000000"/>
    </timestep>
    <timestep time="61.00">
        <vehicle id="flow_0.0" x="13.447104" y="52.502749" angle="295.276861" type="vehDist71" speed="0.000000" pos="32.358913" lane="421557812#0_0" slope="0.000000"/>
        <vehicle id="flow_0.1" x="13.450133" y="52.501929" angle="294.817785" type="vehDist4" speed="6.292305" pos="27.899829" lane="36920052#1_0" slope="0.000000"/>
    </timestep>
    <timestep time="62.00">
        <vehicle id="flow_0.0" x="13.447104" y="52.502749" angle="295.276861" type="vehDist71" speed="0.000000" pos="32.358913" lane="421557812#0_0" slope="0.000000"/>
        <vehicle id="flow_0.1" x="13.450051" y="52.501951" angle="294.817785" type="vehDist4" speed="6.093433" pos="33.993261" lane="36920052#1_0" slope="0.000000"/>
    </timestep>
    <timestep time="63.00">
        <vehicle id="flow_0.0" x="13.447104" y="52.502749" angle="295.276861" type="vehDist71" speed="0.000000" pos="32.358913" lane="421557812#0_0" slope="0.000000"/>
        <vehicle id="flow_0.1" x="13.449970" y="52.501973" angle="294.817785" type="vehDist4" speed="6.019182" pos="40.012444" lane="36920052#1_0" slope="0.000000"/>
    </timestep>
    <timestep time="64.00">
        <vehicle id="flow_0.0" x="13.447104" y="52.502749" angle="295.276861" type="vehDist71" speed="0.000000" pos="32.358913" lane="421557812#0_0" slope="0.000000"/>
        <vehicle id="flow_0.1" x="13.449888" y="52.501994" angle="294.817785" type="vehDist4" speed="6.072534" pos="46.084977" lane="36920052#1_0" slope="0.000000"/>
    </timestep>
    <timestep time="65.00">
        <vehicle id="flow_0.0" x="13.447104" y="52.502749" angle="295.276861" type="vehDist71" speed="0.000000" pos="32.358913" lane="421557812#0_0" slope="0.000000"/>
        <vehicle id="flow_0.1" x="13.449806" y="52.502016" angle="294.817785" type="vehDist4" speed="6.058260" pos="52.143237" lane="36920052#1_0" slope="0.000000"/>
    </timestep>
    <timestep time="66.00">
        <vehicle id="flow_0.0" x="13.447104" y="52.502749" angle="295.276861" type="vehDist71" speed="0.000000" pos="32.358913" lane="421557812#0_0" slope="0.000000"/>
        <vehicle id="flow_0.1" x="13.449726" y="52.502038" angle="294.817785" type="vehDist4" speed="5.973529" pos="58.116767" lane="36920052#1_0" slope="0.000000"/>
    </timestep>
    <timestep time="67.00">
        <vehicle id="flow_0.0" x="13.447104" y="52.502749" angle="295.276861" type="vehDist71" speed="0.000000" pos="32.358913" lane="421557812#0_0" slope="0.000000"/>
        <vehicle id="flow_0.1" x="13.449641" y="52.502060" angle="294.817785" type="vehDist4" speed="6.248646" pos="64.365412" lane="36920052#1_0" slope="0.000000"/>
    </timestep>
    <timestep time="68.00">
        <vehicle id="flow_0.0" x="13.447104" y="52.502749" angle="295.276861" type="vehDist71" speed="0.000000" pos="32.358913" lane="421557812#0_0" slope="0.000000"/>
        <vehicle id="flow_0.1" x="13.449556" y="52.502083" angle="294.817785" type="vehDist4" speed="6.336695" pos="70.702107" lane="36920052#1_0" slope="0.000000"/>
    </timestep>
    <timestep time="69.00">
        <vehicle id="flow_0.0" x="13.447104" y="52.502749" angle="295.276861" type="vehDist71" speed="0.000000" pos="32.358913" lane="421557812#0_0" slope="0.000000"/>
        <vehicle id="flow_0.1" x="13.449473" y="52.502105" angle="294.817785" type="vehDist4" speed="6.109940" pos="76.812047" lane="36920052#1_0" slope="0.000000"/>
    </timestep>
    <timestep time="70.00">
        <vehicle id="flow_0.0" x="13.447104" y="52.502749" angle="295.276861" type="vehDist71" speed="0.000000" pos="32.358913" lane="421557812#0_0" slope="0.000000"/>
        <vehicle id="flow_0.1" x="13.449391" y="52.502127" angle="294.817785" type="vehDist4" speed="6.123724" pos="82.935771" lane="36920052#1_0" slope="0.000000"/>
    </timestep>
    <timestep time="71.00">
        <vehicle id="flow_0.0" x="13.447104" y="52.502749" angle="295.276861" type="vehDist71" speed="0.000000" pos="32.358913" lane="421557812#0_0" slope="0.000000"/>
        <vehicle id="flow_0.1" x="13.449309" y="52.502149" angle="295.200614" type="vehDist4" speed="6.034966" pos="1.410738" lane="36920052#2_0" slope="0.000000"/>
    </timestep>
    <timestep time="72.00">
        <vehicle id="flow_0.0" x="13.447104" y="52.502749" angle="295.276861" type="vehDist71" speed="0.000000" pos="32.358913" lane="421557812#0_0" slope="0.000000"/>
        <vehicle id="flow_0.1" x="13.449230" y="52.502170" angle="295.271091" type="vehDist4" speed="5.940482" pos="7.351220" lane="36920052#2_0" slope="0.000000"/>
    </timestep>
    <timestep time="73.00">
        <vehicle id="flow_0.0" x="13.447104" y="52.502749" angle="295.276861" type="vehDist71" speed="0.000000" pos="32.358913" lane="421557812#0_0" slope="0.000000"/>
        <vehicle id="flow_0.1" x="13.449146" y="52.502193" angle="295.271091" type="vehDist4" speed="6.239052" pos="13.590272" lane="36920052#2_0" slope="0.000000"/>
    </timestep>
    <timestep time="74.00">
        <vehicle id="flow_0.0" x="13.447104" y="52.502749" angle="295.276861" type="vehDist71" speed="0.000000" pos="32.358913" lane="421557812#0_0" slope="0.000000"/>
        <vehicle id="flow_0.1" x="13.449061" y="52.502216" angle="295.271091" type="vehDist4" speed="6.319838" pos="19.910110" lane="36920052#2_0" slope="0.000000"/>
    </timestep>
    <timestep time="75.00">
        <vehicle id="flow_0.0" x="13.447104" y="52.502749" angle="295.276861" type="vehDist71" speed="0.000000" pos="32.358913" lane="421557812#0_0" slope="0.000000"/>
        <vehicle id="flow_0.1" x="13.448976" y="52.502239" angle="295.271091" type="vehDist4" speed="6.281961" pos="26.192071" lane="36920052#2_0" slope="0.000000"/>
    </timestep>
    <timestep time="76.00">
        <vehicle id="flow_0.0" x="13.447104" y="52.502749" angle="295.276861" type="vehDist71" speed="0.000000" pos="32.358913" lane="421557812#0_0" slope="0.000000"/>
        <vehicle id="flow_0.1" x="13.448894" y="52.502262" angle="295.271091" type="vehDist4" speed="6.070232" pos="32.262303" lane="36920052#2_0" slope="0.000000"/>
    </timestep>
    <timestep time="77.00">
        <vehicle id="flow_0.0" x="13.447104" y="52.502749" angle="295.276861" type="vehDist71" speed="0.000000" pos="32.358913" lane="421557812#0_0" slope="0.000000"/>
        <vehicle id="flow_0.1" x="13.448813" y="52.502284" angle="295.271091" type="vehDist4" speed="6.054601" pos="38.316904" lane="36920052#2_0" slope="0.000000"/>
    </timestep>
    <timestep time="78.00">
        <vehicle id="flow_0.0" x="13.447104" y="52.502749" angle="295.276861" type="vehDist71" speed="0.000000" pos="32.358913" lane="421557812#0_0" slope="0.000000"/>
        <vehicle id="flow_0.1" x="13.448730" y="52.502306" angle="295.271091" type="vehDist4" speed="6.196575" pos="44.513479" lane="36920052#2_0" slope="0.000000"/>
    </timestep>
    <timestep time="79.00">
        <vehicle id="flow_0.0" x="13.447104" y="52.502749" angle="295.276861" type="vehDist71" speed="0.000000" pos="32.358913" lane="421557812#0_0" slope="0.000000"/>
        <vehicle id="flow_0.1" x="13.448650" y="52.502328" angle="295.271091" type="vehDist4" speed="5.950844" pos="50.464323" lane="36920052#2_0" slope="0.000000"/>
    </timestep>
    <timestep time="80.00">
        <vehicle id="flow_0.0" x="13.447104" y="52.502749" angle="295.276861" type="vehDist71" speed="0.000000" pos="32.358913" lane="421557812#0_0" slope="0.000000"/>
        <vehicle id="flow_0.1" x="13.448567" y="52.502351" angle="295.271091" type="vehDist4" speed="6.125066" pos="56.589389" lane="36920052#2_0" slope="0.000000"/>
        <vehicle id="flow_0.2" x="13.451575" y="52.501530" angle="296.453267" type="vehDist49" speed="0.000000" pos="1.700000" lane="824274199#0_0" slope="0.000000"/>
    </timestep>
    <timestep time="81.00">
        <vehicle id="flow_0.0" x="13.447104" y="52.502749" angle="295.276861" type="vehDist71" speed="0.000000" pos="32.358913" lane="421557812#0_0" slope="0.000000"/>
        <vehicle id="flow_0.1" x="13.448483" y="52.502374" angle="295.271091" type="vehDist4" speed="6.265871" pos="62.855260" lane="36920052#2_0" slope="0.000000"/>
        <vehicle id="flow_0.2" x="13.451567" y="52.501532" angle="296.453267" type="vehDist49" speed="0.613445" pos="2.313445" lane="824274199#0_0" slope="0.000000"/>
    </timestep>
    <timestep time="82.00">
        <vehicle id="flow_0.0" x="13.447104" y="52.502749" angle="295.276861" type="vehDist71" speed="0.000000" pos="32.358913" lane="421557812#0_0" slope="0.000000"/>
        <vehicle id="flow_0.1" x="13.448403" y="52.502395" angle="295.271091" type="vehDist4" speed="5.923363" pos="68.778623" lane="36920052#2_0" slope="0.000000"/>
        <vehicle id="flow_0.2" x="13.451546" y="52.501538" angle="296.453267" type="vehDist49" speed="1.510763" pos="3.824207" lane="824274199#0_0" slope="0.000000"/>
    </timestep>
    <timestep time="83.00">
        <vehicle id="flow_0.0" x="13.447104" y="52.502749" angle="295.276861" type="vehDist71" speed="0.000000" pos="32.358913" lane="421557812#0_0" slope="0.000000"/>
        <vehicle id="flow_0.1" x="13.448321" y="52.502418" angle="295.271091" type="vehDist4" speed="6.107388" pos="74.886011" lane="36920052#2_0" slope="0.000000"/>
        <vehicle id="flow_0.2" x="13.451515" y="52.501547" angle="296.453267" type="vehDist49" speed="2.320970" pos="6.145177" lane="824274199#0_0" slope="0.000000"/>
    </timestep>
    <timestep time="84.00">
        <vehicle id="flow_0.0" x="13.447104" y="52.502749" angle="295.276861" type="vehDist71" speed="0.000000" pos="32.358913" lane="421557812#0_0" slope="0.000000"/>
        <vehicle id="flow_0.1" x="13.448238" y="52.502440" angle="295.271091" type="vehDist4" speed="6.188327" pos="81.074338" lane="36920052#2_0" slope="0.000000"/>
        <vehicle id="flow_0.2" x="13.451474" y="52.501559" angle="296.453267" type="vehDist49" speed="3.127574" pos="9.272752" lane="824274199#0_0" slope="0.000000"/>
    </timestep>
    <timestep time="85.00">
        <vehicle id="flow_0.0" x="13.447104" y="52.502749" angle="295.276861" type="vehDist71" speed="0.000000" pos="32.358913" lane="421557812#0_0" slope="0.000000"/>
        <vehicle id="flow_0.1" x="13.448157" y="52.502462" angle="295.271091" type="vehDist4" speed="6.004537" pos="87.078874" lane="36920052#2_0" slope="0.000000"/>
        <vehicle id="flow_0.2" x="13.451424" y="52.501573" angle="296.453267" type="vehDist49" speed="3.704428" pos="12.977180" lane="824274199#0_0" slope="0.000000"/>
    </timestep>
    <timestep time="86.00">
        <vehicle id="flow_0.0" x="13.447104" y="52.502749" angle="295.276861" type="vehDist71" speed="0.000000" pos="32.358913" lane="421557812#0_0" slope="0.000000"/>
        <vehicle id="flow_0.1" x="13.448078" y="52.502484" angle="295.271091" type="vehDist4" speed="5.902787" pos="92.981662" lane="36920052#2_0" slope="0.000000"/>
        <vehicle id="flow_0.2" x="13.451367" y="52.501589" angle="296.453267" type="vehDist49" speed="4.335612" pos="17.312792" lane="824274199#0_0" slope="0.000000"/>
    </timestep>
    <timestep time="87.00">
        <vehicle id="flow_0.0" x="13.447104" y="52.502749" angle="295.276861" type="vehDist71" speed="0.000000" pos="32.358913" lane="421557812#0_0" slope="0.000000"/>
        <vehicle id="flow_0.1" x="13.447995" y="52.502506" angle="295.271091" type="vehDist4" speed="6.129903" pos="99.111565" lane="36920052#2_0" slope="0.000000"/>
        <vehicle id="flow_0.2" x="13.451297" y="52.501609" angle="296.453267" type="vehDist49" speed="5.240844" pos="22.553636" lane="824274199#0_0" slope="0.000000"/>
    </timestep>
    <timestep time="88.00">
        <vehicle id="flow_0.0" x="13.447104" y="52.502749" angle="295.276861" type="vehDist71" speed="0.000000" pos="32.358913" lane="421557812#0_0" slope="0.000000"/>
        <vehicle id="flow_0.1" x="13.447914" y="52.502528" angle="295.271091" type="vehDist4" speed="5.997784" pos="105.109349" lane="36920052#2_0" slope="0.000000"/>
        <vehicle id="flow_0.2" x="13.451217" y="52.501632" angle="296.453267" type="vehDist49" speed="5.955674" pos="28.509310" lane="824274199#0_0" slope="0.000000"/>
    </timestep>
    <timestep time="89.00">
        <vehicle id="flow_0.0" x="13.447104" y="52.502749" angle="295.276861" type="vehDist71" speed="0.000000" pos="32.358913" lane="421557812#0_0" slope="0.000000"/>
        <vehicle id="flow_0.1" x="13.447843" y="52.502558" angle="314.216894" type="vehDist4" speed="6.071326" pos="4.830675" lane=":29785478_0_0" slope="0.000000"/>
        <vehicle id="flow_0.2" x="13.451138" y="52.501655" angle="296.453267" type="vehDist49" speed="5.971420" pos="34.480730" lane="824274199#0_0" slope="0.000000"/>
    </timestep>
    <timestep time="90.00">