<?xml version="1.0" encoding="UTF-8"?>

<!-- generated on Fr 02 Jul 2021 14:14:47 CEST by Eclipse SUMO GUI Version v1_7_0+1228-0b1a97d77e
<configuration xmlns:xsi="http://www.w3.org/2001/XMLSchema-instance" xsi:noNamespaceSchemaLocation="http://sumo.dlr.de/xsd/sumoConfiguration.xsd">

    <input>
        <net-file value="../alex_traci/alex_2_blunt.net.xml"/>
        <route-files value="../alex_traci/alex_2.trips.xml"/>
    </input>

    <output>
        <fcd-output value="../alex_traci/sim_results/fcd_out_2.00_1.00_1.00_15.xml"/>
        <fcd-output.geo value="true"/>
    </output>

    <time>
        <begin value="0"/>
        <end value="8000"/>
    </time>

    <fcd_device>
        <device.fcd.explicit value="vehDist"/>
    </fcd_device>

    <traci_server>
        <remote-port value="55231"/>
    </traci_server>

</configuration>
-->

<fcd-export xmlns:xsi="http://www.w3.org/2001/XMLSchema-instance" xsi:noNamespaceSchemaLocation="http://sumo.dlr.de/xsd/fcd_file.xsd">
    <timestep time="0.00">
        <vehicle id="flow_1.0" x="13.414635" y="52.520033" angle="34.557237" type="vehDist4" speed="0.000000" pos="1.700000" lane="24540242#1_0" slope="0.000000"/>
    </timestep>
    <timestep time="1.00">
        <vehicle id="flow_1.0" x="13.414641" y="52.520039" angle="34.557237" type="vehDist4" speed="0.731793" pos="2.431793" lane="24540242#1_0" slope="0.000000"/>
    </timestep>
    <timestep time="2.00">
        <vehicle id="flow_1.0" x="13.414651" y="52.520049" angle="34.557237" type="vehDist4" speed="1.314118" pos="3.745911" lane="24540242#1_0" slope="0.000000"/>
    </timestep>
    <timestep time="3.00">
        <vehicle id="flow_1.0" x="13.414667" y="52.520063" angle="34.557237" type="vehDist4" speed="1.952552" pos="5.698463" lane="24540242#1_0" slope="0.000000"/>
        <vehicle id="flow_2.0" x="13.414635" y="52.520033" angle="34.557237" type="vehDist49" speed="0.000000" pos="1.700000" lane="24540242#1_0" slope="0.000000"/>
    </timestep>
    <timestep time="4.00">
        <vehicle id="flow_1.0" x="13.414687" y="52.520082" angle="34.557237" type="vehDist4" speed="2.416489" pos="8.114951" lane="24540242#1_0" slope="0.000000"/>
        <vehicle id="flow_2.0" x="13.414640" y="52.520038" angle="34.557237" type="vehDist49" speed="0.646994" pos="2.346994" lane="24540242#1_0" slope="0.000000"/>
    </timestep>
    <timestep time="5.00">
        <vehicle id="flow_1.0" x="13.414711" y="52.520104" angle="34.557237" type="vehDist4" speed="2.960968" pos="11.075919" lane="24540242#1_0" slope="0.000000"/>
        <vehicle id="flow_2.0" x="13.414650" y="52.520047" angle="34.557237" type="vehDist49" speed="1.224288" pos="3.571282" lane="24540242#1_0" slope="0.000000"/>
    </timestep>
    <timestep time="6.00">
        <vehicle id="flow_1.0" x="13.414739" y="52.520130" angle="34.557237" type="vehDist4" speed="3.486692" pos="14.562611" lane="24540242#1_0" slope="0.000000"/>
        <vehicle id="flow_2.0" x="13.414665" y="52.520061" angle="34.557237" type="vehDist49" speed="1.807527" pos="5.378810" lane="24540242#1_0" slope="0.000000"/>
    </timestep>
    <timestep time="7.00">
        <vehicle id="flow_1.0" x="13.414772" y="52.520161" angle="34.557237" type="vehDist4" speed="4.089430" pos="18.652041" lane="24540242#1_0" slope="0.000000"/>
        <vehicle id="flow_2.0" x="13.414687" y="52.520082" angle="34.557237" type="vehDist49" speed="2.727956" pos="8.106766" lane="24540242#1_0" slope="0.000000"/>
    </timestep>
    <timestep time="8.00">
        <vehicle id="flow_1.0" x="13.414810" y="52.520196" angle="34.557237" type="vehDist4" speed="4.665392" pos="23.317433" lane="24540242#1_0" slope="0.000000"/>
        <vehicle id="flow_2.0" x="13.414717" y="52.520109" angle="34.557237" type="vehDist49" speed="3.724362" pos="11.831128" lane="24540242#1_0" slope="0.000000"/>
    </timestep>
    <timestep time="9.00">
        <vehicle id="flow_1.0" x="13.414853" y="52.520236" angle="34.557237" type="vehDist4" speed="5.330700" pos="28.648133" lane="24540242#1_0" slope="0.000000"/>
        <vehicle id="flow_2.0" x="13.414752" y="52.520142" angle="34.557237" type="vehDist49" speed="4.290537" pos="16.121665" lane="24540242#1_0" slope="0.000000"/>
    </timestep>
    <timestep time="10.00">
        <vehicle id="flow_1.0" x="13.414899" y="52.520278" angle="34.557237" type="vehDist4" speed="5.655413" pos="34.303546" lane="24540242#1_0" slope="0.000000"/>
        <vehicle id="flow_2.0" x="13.414794" y="52.520181" angle="34.557237" type="vehDist49" speed="5.235398" pos="21.357063" lane="24540242#1_0" slope="0.000000"/>
    </timestep>
    <timestep time="11.00">
        <vehicle id="flow_1.0" x="13.414945" y="52.520321" angle="34.557237" type="vehDist4" speed="5.716797" pos="40.020343" lane="24540242#1_0" slope="0.000000"/>
        <vehicle id="flow_2.0" x="13.414841" y="52.520225" angle="34.557237" type="vehDist49" speed="5.801634" pos="27.158697" lane="24540242#1_0" slope="0.000000"/>
    </timestep>
    <timestep time="12.00">
        <vehicle id="flow_1.0" x="13.414993" y="52.520366" angle="34.557237" type="vehDist4" speed="5.995340" pos="46.015683" lane="24540242#1_0" slope="0.000000"/>
        <vehicle id="flow_2.0" x="13.414892" y="52.520272" angle="34.557237" type="vehDist49" speed="6.363927" pos="33.522624" lane="24540242#1_0" slope="0.000000"/>
    </timestep>
    <timestep time="13.00">
        <vehicle id="flow_1.0" x="13.415042" y="52.520411" angle="34.557237" type="vehDist4" speed="5.948289" pos="51.963972" lane="24540242#1_0" slope="0.000000"/>
        <vehicle id="flow_2.0" x="13.414947" y="52.520323" angle="34.557237" type="vehDist49" speed="6.703484" pos="40.226108" lane="24540242#1_0" slope="0.000000"/>
    </timestep>
    <timestep time="14.00">
        <vehicle id="flow_1.0" x="13.415090" y="52.520456" angle="34.557237" type="vehDist4" speed="6.038470" pos="58.002442" lane="24540242#1_0" slope="0.000000"/>
        <vehicle id="flow_2.0" x="13.415001" y="52.520373" angle="34.557237" type="vehDist49" speed="6.688214" pos="46.914321" lane="24540242#1_0" slope="0.000000"/>
    </timestep>
    <timestep time="15.00">
        <vehicle id="flow_1.0" x="13.415138" y="52.520501" angle="34.557237" type="vehDist4" speed="5.939895" pos="63.942337" lane="24540242#1_0" slope="0.000000"/>
        <vehicle id="flow_2.0" x="13.415053" y="52.520421" angle="34.557237" type="vehDist49" speed="6.418913" pos="53.333235" lane="24540242#1_0" slope="0.000000"/>
    </timestep>
    <timestep time="16.00">
        <vehicle id="flow_1.0" x="13.415187" y="52.520546" angle="34.557237" type="vehDist4" speed="6.034689" pos="69.977026" lane="24540242#1_0" slope="0.000000"/>
        <vehicle id="flow_2.0" x="13.415107" y="52.520472" angle="34.557237" type="vehDist49" speed="6.733186" pos="60.066421" lane="24540242#1_0" slope="0.000000"/>
    </timestep>
    <timestep time="17.00">
        <vehicle id="flow_1.0" x="13.415234" y="52.520590" angle="34.557237" type="vehDist4" speed="5.821542" pos="75.798568" lane="24540242#1_0" slope="0.000000"/>
        <vehicle id="flow_2.0" x="13.415161" y="52.520522" angle="34.557237" type="vehDist49" speed="6.612718" pos="66.679139" lane="24540242#1_0" slope="0.000000"/>
    </timestep>
    <timestep time="18.00">
        <vehicle id="flow_1.0" x="13.415281" y="52.520634" angle="34.557237" type="vehDist4" speed="5.787197" pos="81.585766" lane="24540242#1_0" slope="0.000000"/>
        <vehicle id="flow_2.0" x="13.415211" y="52.520568" angle="34.557237" type="vehDist49" speed="6.175864" pos="72.855003" lane="24540242#1_0" slope="0.000000"/>
    </timestep>
    <timestep time="19.00">
        <vehicle id="flow_1.0" x="13.415329" y="52.520678" angle="34.557237" type="vehDist4" speed="5.863702" pos="87.449467" lane="24540242#1_0" slope="0.000000"/>
        <vehicle id="flow_2.0" x="13.415260" y="52.520613" angle="34.557237" type="vehDist49" speed="6.053838" pos="78.908841" lane="24540242#1_0" slope="0.000000"/>
    </timestep>
    <timestep time="20.00">
        <vehicle id="flow_1.0" x="13.415376" y="52.520722" angle="34.557237" type="vehDist4" speed="5.899755" pos="93.349223" lane="24540242#1_0" slope="0.000000"/>
        <vehicle id="flow_2.0" x="13.415305" y="52.520655" angle="34.557237" type="vehDist49" speed="5.594001" pos="84.502842" lane="24540242#1_0" slope="0.000000"/>
    </timestep>
    <timestep time="21.00">
        <vehicle id="flow_1.0" x="13.415423" y="52.520765" angle="34.557237" type="vehDist4" speed="5.764539" pos="99.113762" lane="24540242#1_0" slope="0.000000"/>
        <vehicle id="flow_2.0" x="13.415353" y="52.520700" angle="34.557237" type="vehDist49" speed="5.904769" pos="90.407611" lane="24540242#1_0" slope="0.000000"/>
    </timestep>
    <timestep time="22.00">
        <vehicle id="flow_1.0" x="13.415471" y="52.520810" angle="34.557237" type="vehDist4" speed="5.929502" pos="105.043264" lane="24540242#1_0" slope="0.000000"/>
        <vehicle id="flow_2.0" x="13.415402" y="52.520745" angle="34.557237" type="vehDist49" speed="6.064569" pos="96.472180" lane="24540242#1_0" slope="0.000000"/>
    </timestep>
    <timestep time="23.00">
        <vehicle id="flow_1.0" x="13.415517" y="52.520853" angle="34.557237" type="vehDist4" speed="5.694295" pos="110.737558" lane="24540242#1_0" slope="0.000000"/>
        <vehicle id="flow_2.0" x="13.415447" y="52.520788" angle="34.557237" type="vehDist49" speed="5.624343" pos="102.096523" lane="24540242#1_0" slope="0.000000"/>
    </timestep>
    <timestep time="24.00">
        <vehicle id="flow_1.0" x="13.415563" y="52.520895" angle="34.557237" type="vehDist4" speed="5.702845" pos="116.440403" lane="24540242#1_0" slope="0.000000"/>
        <vehicle id="flow_2.0" x="13.415493" y="52.520831" angle="34.557237" type="vehDist49" speed="5.727867" pos="107.824389" lane="24540242#1_0" slope="0.000000"/>
    </timestep>
    <timestep time="25.00">
        <vehicle id="flow_1.0" x="13.415611" y="52.520940" angle="34.557237" type="vehDist4" speed="5.943500" pos="122.383903" lane="24540242#1_0" slope="0.000000"/>
        <vehicle id="flow_2.0" x="13.415541" y="52.520875" angle="34.557237" type="vehDist49" speed="5.926999" pos="113.751388" lane="24540242#1_0" slope="0.000000"/>
    </timestep>
    <timestep time="26.00">
        <vehicle id="flow_1.0" x="13.415657" y="52.520983" angle="34.557237" type="vehDist4" speed="5.708115" pos="128.092019" lane="24540242#1_0" slope="0.000000"/>
        <vehicle id="flow_2.0" x="13.415590" y="52.520920" angle="34.557237" type="vehDist49" speed="5.996776" pos="119.748164" lane="24540242#1_0" slope="0.000000"/>
    </timestep>
    <timestep time="27.00">
        <vehicle id="flow_1.0" x="13.415706" y="52.521028" angle="34.557237" type="vehDist4" speed="5.978584" pos="134.070602" lane="24540242#1_0" slope="0.000000"/>
        <vehicle id="flow_2.0" x="13.415634" y="52.520962" angle="34.557237" type="vehDist49" speed="5.494673" pos="125.242837" lane="24540242#1_0" slope="0.000000"/>
    </timestep>
    <timestep time="28.00">
        <vehicle id="flow_1.0" x="13.415752" y="52.521071" angle="34.557237" type="vehDist4" speed="5.719175" pos="139.789777" lane="24540242#1_0" slope="0.000000"/>
        <vehicle id="flow_2.0" x="13.415683" y="52.521007" angle="34.557237" type="vehDist49" speed="6.017584" pos="131.260421" lane="24540242#1_0" slope="0.000000"/>
    </timestep>
    <timestep time="29.00">
        <vehicle id="flow_1.0" x="13.415799" y="52.521114" angle="34.557237" type="vehDist4" speed="5.799712" pos="145.589489" lane="24540242#1_0" slope="0.000000"/>
        <vehicle id="flow_2.0" x="13.415729" y="52.521050" angle="34.557237" type="vehDist49" speed="5.731799" pos="136.992220" lane="24540242#1_0" slope="0.000000"/>
    </timestep>
    <timestep time="30.00">
        <vehicle id="flow_1.0" x="13.415847" y="52.521159" angle="34.557237" type="vehDist4" speed="5.893933" pos="151.483422" lane="24540242#1_0" slope="0.000000"/>
        <vehicle id="flow_2.0" x="13.415777" y="52.521094" angle="34.557237" type="vehDist49" speed="5.877997" pos="142.870217" lane="24540242#1_0" slope="0.000000"/>
    </timestep>
    <timestep time="31.00">
        <vehicle id="flow_1.0" x="13.415894" y="52.521203" angle="34.557237" type="vehDist4" speed="5.865955" pos="157.349377" lane="24540242#1_0" slope="0.000000"/>
        <vehicle id="flow_2.0" x="13.415824" y="52.521137" angle="34.557237" type="vehDist49" speed="5.774557" pos="148.644774" lane="24540242#1_0" slope="0.000000"/>
    </timestep>
    <timestep time="32.00">
        <vehicle id="flow_1.0" x="13.415940" y="52.521246" angle="34.557237" type="vehDist4" speed="5.706913" pos="163.056290" lane="24540242#1_0" slope="0.000000"/>
        <vehicle id="flow_2.0" x="13.415872" y="52.521182" angle="34.557237" type="vehDist49" speed="5.961695" pos="154.606469" lane="24540242#1_0" slope="0.000000"/>
    </timestep>
    <timestep time="33.00">
        <vehicle id="flow_1.0" x="13.415993" y="52.521287" angle="45.965568" type="vehDist4" speed="5.779622" pos="2.255913" lane=":1986668243_0_0" slope="0.000000"/>
        <vehicle id="flow_2.0" x="13.415919" y="52.521226" angle="34.557237" type="vehDist49" speed="5.846810" pos="160.453279" lane="24540242#1_0" slope="0.000000"/>
    </timestep>
    <timestep time="34.00">
        <vehicle id="flow_1.0" x="13.416068" y="52.521313" angle="45.965568" type="vehDist4" speed="5.920291" pos="8.176203" lane=":1986668243_0_0" slope="0.000000"/>
        <vehicle id="flow_2.0" x="13.415964" y="52.521268" angle="34.557237" type="vehDist49" speed="5.513019" pos="165.966298" lane="24540242#1_0" slope="0.000000"/>
    </timestep>
    <timestep time="35.00">
        <vehicle id="flow_1.0" x="13.416116" y="52.521357" angle="34.378470" type="vehDist4" speed="5.862354" pos="5.368558" lane="188044903#0_0" slope="0.000000"/>
        <vehicle id="flow_2.0" x="13.416038" y="52.521298" angle="69.860237" type="vehDist49" speed="6.168487" pos="5.554785" lane=":1986668243_0_0" slope="0.000000"/>
    </timestep>
    <timestep time="36.00">
        <vehicle id="flow_1.0" x="13.416164" y="52.521401" angle="34.378470" type="vehDist4" speed="5.895063" pos="11.263620" lane="188044903#0_0" slope="0.000000"/>
        <vehicle id="flow_2.0" x="13.416097" y="52.521339" angle="34.378470" type="vehDist49" speed="6.077298" pos="2.962082" lane="188044903#0_0" slope="0.000000"/>
    </timestep>
    <timestep time="37.00">
        <vehicle id="flow_1.0" x="13.416212" y="52.521447" angle="34.378470" type="vehDist4" speed="5.991181" pos="17.254802" lane="188044903#0_0" slope="0.000000"/>
        <vehicle id="flow_2.0" x="13.416143" y="52.521382" angle="34.378470" type="vehDist49" speed="5.717262" pos="8.679344" lane="188044903#0_0" slope="0.000000"/>
    </timestep>
    <timestep time="38.00">
        <vehicle id="flow_1.0" x="13.416259" y="52.521491" angle="34.378470" type="vehDist4" speed="5.892100" pos="23.146902" lane="188044903#0_0" slope="0.000000"/>
        <vehicle id="flow_2.0" x="13.416192" y="52.521428" angle="34.378470" type="vehDist49" speed="6.102793" pos="14.782137" lane="188044903#0_0" slope="0.000000"/>
    </timestep>
    <timestep time="39.00">
        <vehicle id="flow_1.0" x="13.416307" y="52.521535" angle="34.813499" type="vehDist4" speed="6.014544" pos="2.321446" lane="188044903#1_0" slope="0.000000"/>
        <vehicle id="flow_2.0" x="13.416238" y="52.521471" angle="34.378470" type="vehDist49" speed="5.696778" pos="20.478914" lane="188044903#0_0" slope="0.000000"/>
    </timestep>
    <timestep time="40.00">
        <vehicle id="flow_1.0" x="13.416360" y="52.521584" angle="34.813499" type="vehDist4" speed="6.043000" pos="9.153892" lane="188044903#1_0" slope="0.000000"/>
        <vehicle id="flow_1.1" x="13.414635" y="52.520033" angle="34.557237" type="vehDist58" speed="0.000000" pos="1.700000" lane="24540242#1_0" slope="0.000000"/>
        <vehicle id="flow_2.0" x="13.416287" y="52.521517" angle="34.322323" type="vehDist49" speed="6.150995" pos="0.079909" lane=":3163433363_0_0" slope="0.000000"/>
    </timestep>
    <timestep time="41.00">
        <vehicle id="flow_1.0" x="13.416407" y="52.521627" angle="34.813499" type="vehDist4" speed="5.543000" pos="15.229584" lane="188044903#1_0" slope="0.000000"/>
        <vehicle id="flow_1.1" x="13.414641" y="52.520039" angle="34.557237" type="vehDist58" speed="0.775082" pos="2.475082" lane="24540242#1_0" slope="0.000000"/>
        <vehicle id="flow_2.0" x="13.416334" y="52.521560" angle="34.813499" type="vehDist49" speed="6.069693" pos="5.859602" lane="188044903#1_0" slope="0.000000"/>
    </timestep>
    <timestep time="42.00">
        <vehicle id="flow_1.0" x="13.416442" y="52.521659" angle="34.813499" type="vehDist4" speed="3.043000" pos="19.732077" lane="188044903#1_0" slope="0.000000"/>
        <vehicle id="flow_1.1" x="13.414653" y="52.520050" angle="34.557237" type="vehDist58" speed="1.462813" pos="3.937895" lane="24540242#1_0" slope="0.000000"/>
        <vehicle id="flow_2.0" x="13.416382" y="52.521604" angle="34.813499" type="vehDist49" speed="6.199381" pos="12.058984" lane="188044903#1_0" slope="0.000000"/>
        <vehicle id="flow_2.1" x="13.414635" y="52.520033" angle="34.557237" type="vehDist4" speed="0.000000" pos="1.700000" lane="24540242#1_0" slope="0.000000"/>
    </timestep>
    <timestep time="43.00">
        <vehicle id="flow_1.0" x="13.416465" y="52.521680" angle="34.813499" type="vehDist4" speed="2.543000" pos="22.661372" lane="188044903#1_0" slope="0.000000"/>
        <vehicle id="flow_1.1" x="13.414669" y="52.520065" angle="34.557237" type="vehDist58" speed="2.035408" pos="5.973303" lane="24540242#1_0" slope="0.000000"/>
        <vehicle id="flow_2.0" x="13.416413" y="52.521633" angle="34.813499" type="vehDist49" speed="3.967780" pos="16.026764" lane="188044903#1_0" slope="0.000000"/>
        <vehicle id="flow_2.1" x="13.414636" y="52.520034" angle="34.557237" type="vehDist4" speed="0.116172" pos="1.816172" lane="24540242#1_0" slope="0.000000"/>
    </timestep>
    <timestep time="44.00">
        <vehicle id="flow_1.0" x="13.416477" y="52.521692" angle="34.813499" type="vehDist4" speed="0.543000" pos="24.279668" lane="188044903#1_0" slope="0.000000"/>
        <vehicle id="flow_1.1" x="13.414692" y="52.520086" angle="34.557237" type="vehDist58" speed="2.785518" pos="8.758821" lane="24540242#1_0" slope="0.000000"/>
        <vehicle id="flow_2.0" x="13.416440" y="52.521658" angle="34.813499" type="vehDist49" speed="3.492280" pos="19.519044" lane="188044903#1_0" slope="0.000000"/>
        <vehicle id="flow_2.1" x="13.414643" y="52.520041" angle="34.557237" type="vehDist4" speed="0.912238" pos="2.728410" lane="24540242#1_0" slope="0.000000"/>
    </timestep>
    <timestep time="45.00">
        <vehicle id="flow_1.0" x="13.416477" y="52.521692" angle="34.813499" type="vehDist4" speed="0.000000" pos="24.279668" lane="188044903#1_0" slope="0.000000"/>
        <vehicle id="flow_1.1" x="13.414720" y="52.520112" angle="34.557237" type="vehDist58" speed="3.434418" pos="12.193238" lane="24540242#1_0" slope="0.000000"/>
        <vehicle id="flow_2.0" x="13.416457" y="52.521674" angle="34.813499" type="vehDist49" speed="2.223725" pos="21.742769" lane="188044903#1_0" slope="0.000000"/>
        <vehicle id="flow_2.1" x="13.414655" y="52.520052" angle="34.557237" type="vehDist4" speed="1.406824" pos="4.135234" lane="24540242#1_0" slope="0.000000"/>
    </timestep>
    <timestep time="46.00">
        <vehicle id="flow_1.0" x="13.416481" y="52.521696" angle="34.813499" type="vehDist4" speed="0.801000" pos="24.804068" lane="188044903#1_0" slope="0.000000"/>
        <vehicle id="flow_1.1" x="13.414753" y="52.520143" angle="34.557237" type="vehDist58" speed="4.130763" pos="16.324001" lane="24540242#1_0" slope="0.000000"/>
        <vehicle id="flow_2.0" x="13.416460" y="52.521676" angle="34.813499" type="vehDist49" speed="0.383798" pos="22.126567" lane="188044903#1_0" slope="0.000000"/>
        <vehicle id="flow_2.1" x="13.414670" y="52.520066" angle="34.557237" type="vehDist4" speed="1.940827" pos="6.076061" lane="24540242#1_0" slope="0.000000"/>
    </timestep>
    <timestep time="47.00">
        <vehicle id="flow_1.0" x="13.416485" y="52.521699" angle="34.813499" type="vehDist4" speed="1.301000" pos="25.270000" lane="188044903#1_0" slope="0.000000"/>
        <vehicle id="flow_1.1" x="13.414791" y="52.520178" angle="34.557237" type="vehDist58" speed="4.682702" pos="21.006703" lane="24540242#1_0" slope="0.000000"/>
        <vehicle id="flow_2.0" x="13.416464" y="52.521680" angle="34.813499" type="vehDist49" speed="0.514441" pos="22.641008" lane="188044903#1_0" slope="0.000000"/>
        <vehicle id="flow_2.1" x="13.414690" y="52.520084" angle="34.557237" type="vehDist4" speed="2.397891" pos="8.473952" lane="24540242#1_0" slope="0.000000"/>
    </timestep>
    <timestep time="48.00">
        <vehicle id="flow_1.0" x="13.416497" y="52.521711" angle="34.813499" type="vehDist4" speed="1.801000" pos="1.454980" lane=":junc_01_18_0" slope="0.000000"/>
        <vehicle id="flow_1.1" x="13.414834" y="52.520218" angle="34.557237" type="vehDist58" speed="5.261638" pos="26.268341" lane="24540242#1_0" slope="0.000000"/>
        <vehicle id="flow_2.0" x="13.416467" y="52.521683" angle="34.813499" type="vehDist49" speed="0.361119" pos="23.002128" lane="188044903#1_0" slope="0.000000"/>
        <vehicle id="flow_2.1" x="13.414714" y="52.520107" angle="34.557237" type="vehDist4" speed="3.037007" pos="11.510958" lane="24540242#1_0" slope="0.000000"/>
    </timestep>
    <timestep time="49.00">
        <vehicle id="flow_1.0" x="13.416515" y="52.521728" angle="34.813499" type="vehDist4" speed="2.602000" pos="3.754917" lane=":junc_01_18_0" slope="0.000000"/>
        <vehicle id="flow_1.1" x="13.414880" y="52.520261" angle="34.557237" type="vehDist58" speed="5.739260" pos="32.007601" lane="24540242#1_0" slope="0.000000"/>
        <vehicle id="flow_2.0" x="13.416476" y="52.521691" angle="34.813499" type="vehDist49" speed="1.134641" pos="24.136769" lane="188044903#1_0" slope="0.000000"/>
        <vehicle id="flow_2.1" x="13.414742" y="52.520133" angle="34.557237" type="vehDist4" speed="3.439311" pos="14.950269" lane="24540242#1_0" slope="0.000000"/>
    </timestep>
    <timestep time="50.00">
        <vehicle id="flow_1.0" x="13.416539" y="52.521752" angle="34.813499" type="vehDist4" speed="3.403000" pos="6.855484" lane=":junc_01_18_0" slope="0.000000"/>
        <vehicle id="flow_1.1" x="13.414931" y="52.520308" angle="34.557237" type="vehDist58" speed="6.278992" pos="38.286593" lane="24540242#1_0" slope="0.000000"/>
        <vehicle id="flow_2.0" x="13.416479" y="52.521693" angle="34.813499" type="vehDist49" speed="0.359447" pos="24.496215" lane="188044903#1_0" slope="0.000000"/>
        <vehicle id="flow_2.1" x="13.414774" y="52.520162" angle="34.557237" type="vehDist4" speed="3.931145" pos="18.881414" lane="24540242#1_0" slope="0.000000"/>
    </timestep>
    <timestep time="51.00">
        <vehicle id="flow_1.0" x="13.416569" y="52.521782" angle="34.813499" type="vehDist4" speed="4.204000" pos="10.756680" lane=":junc_01_18_0" slope="0.000000"/>
        <vehicle id="flow_1.1" x="13.414986" y="52.520359" angle="34.557237" type="vehDist58" speed="6.760311" pos="45.046904" lane="24540242#1_0" slope="0.000000"/>
        <vehicle id="flow_2.0" x="13.416486" y="52.521700" angle="34.714044" type="vehDist49" speed="0.966905" pos="0.093121" lane=":junc_01_18_0" slope="0.000000"/>
        <vehicle id="flow_2.1" x="13.414810" y="52.520196" angle="34.557237" type="vehDist4" speed="4.487933" pos="23.369347" lane="24540242#1_0" slope="0.000000"/>
    </timestep>
    <timestep time="52.00">
        <vehicle id="flow_1.0" x="13.416606" y="52.521818" angle="34.813499" type="vehDist4" speed="5.005000" pos="15.458507" lane=":junc_01_18_0" slope="0.000000"/>
        <vehicle id="flow_1.1" x="13.415039" y="52.520409" angle="34.557237" type="vehDist58" speed="6.647675" pos="51.694579" lane="24540242#1_0" slope="0.000000"/>
        <vehicle id="flow_2.0" x="13.416501" y="52.521714" angle="33.179438" type="vehDist49" speed="1.853471" pos="1.946592" lane=":junc_01_18_0" slope="0.000000"/>
        <vehicle id="flow_2.1" x="13.414852" y="52.520235" angle="34.557237" type="vehDist4" speed="5.201954" pos="28.571301" lane="24540242#1_0" slope="0.000000"/>
    </timestep>
    <timestep time="53.00">
        <vehicle id="flow_1.0" x="13.416648" y="52.521860" angle="34.813499" type="vehDist4" speed="5.806000" pos="20.950607" lane=":junc_01_18_0" slope="0.000000"/>
        <vehicle id="flow_1.1" x="13.415095" y="52.520461" angle="34.557237" type="vehDist58" speed="6.862315" pos="58.556895" lane="24540242#1_0" slope="0.000000"/>
        <vehicle id="flow_2.0" x="13.416520" y="52.521733" angle="33.179438" type="vehDist49" speed="2.496636" pos="4.443227" lane=":junc_01_18_0" slope="0.000000"/>
        <vehicle id="flow_2.1" x="13.414901" y="52.520280" angle="34.557237" type="vehDist4" speed="5.976553" pos="34.547855" lane="24540242#1_0" slope="0.000000"/>
    </timestep>
    <timestep time="54.00">
        <vehicle id="flow_1.0" x="13.416689" y="52.521905" angle="34.813499" type="vehDist4" speed="5.806000" pos="26.735715" lane=":junc_01_18_0" slope="0.000000"/>
        <vehicle id="flow_1.1" x="13.415150" y="52.520512" angle="34.557237" type="vehDist58" speed="6.799809" pos="65.356703" lane="24540242#1_0" slope="0.000000"/>
        <vehicle id="flow_2.0" x="13.416547" y="52.521759" angle="33.179438" type="vehDist49" speed="3.393566" pos="7.836794" lane=":junc_01_18_0" slope="0.000000"/>
        <vehicle id="flow_2.1" x="13.414948" y="52.520324" angle="34.557237" type="vehDist4" speed="5.848795" pos="40.396650" lane="24540242#1_0" slope="0.000000"/>
    </timestep>
    <timestep time="55.00">
        <vehicle id="flow_1.0" x="13.416727" y="52.521947" angle="34.813499" type="vehDist4" speed="4.806000" pos="32.022623" lane=":junc_01_18_0" slope="0.000000"/>
        <vehicle id="flow_1.1" x="13.415204" y="52.520562" angle="34.557237" type="vehDist58" speed="6.725123" pos="72.081826" lane="24540242#1_0" slope="0.000000"/>
        <vehicle id="flow_2.0" x="13.416579" y="52.521791" angle="33.179438" type="vehDist49" speed="4.146567" pos="11.983361" lane=":junc_01_18_0" slope="0.000000"/>
        <vehicle id="flow_2.1" x="13.414994" y="52.520367" angle="34.557237" type="vehDist4" speed="5.686142" pos="46.082792" lane="24540242#1_0" slope="0.000000"/>
    </timestep>
    <timestep time="56.00">
        <vehicle id="flow_1.0" x="13.416758" y="52.521983" angle="34.813499" type="vehDist4" speed="4.306000" pos="36.547145" lane=":junc_01_18_0" slope="0.000000"/>
        <vehicle id="flow_1.1" x="13.415258" y="52.520612" angle="34.557237" type="vehDist58" speed="6.614715" pos="78.696541" lane="24540242#1_0" slope="0.000000"/>
        <vehicle id="flow_2.0" x="13.416619" y="52.521830" angle="33.179438" type="vehDist49" speed="5.157119" pos="17.140480" lane=":junc_01_18_0" slope="0.000000"/>
        <vehicle id="flow_2.1" x="13.415042" y="52.520412" angle="34.557237" type="vehDist4" speed="5.961103" pos="52.043896" lane="24540242#1_0" slope="0.000000"/>
    </timestep>
    <timestep time="57.00">
        <vehicle id="flow_1.0" x="13.416785" y="52.522015" angle="19.813499" type="vehDist4" speed="3.806000" pos="40.563281" lane=":junc_01_18_0" slope="0.000000"/>
        <vehicle id="flow_1.1" x="13.415312" y="52.520662" angle="34.557237" type="vehDist58" speed="6.703084" pos="85.399625" lane="24540242#1_0" slope="0.000000"/>
        <vehicle id="flow_2.0" x="13.416664" y="52.521877" angle="29.988922" type="vehDist49" speed="6.067935" pos="23.208415" lane=":junc_01_18_0" slope="0.000000"/>
        <vehicle id="flow_2.1" x="13.415091" y="52.520457" angle="34.557237" type="vehDist4" speed="6.016647" pos="58.060542" lane="24540242#1_0" slope="0.000000"/>
    </timestep>
    <timestep time="58.00">
        <vehicle id="flow_1.0" x="13.416806" y="52.522041" angle="19.813499" type="vehDist4" speed="2.806000" pos="43.836788" lane=":junc_01_18_0" slope="0.000000"/>
        <vehicle id="flow_1.1" x="13.415366" y="52.520712" angle="34.557237" type="vehDist58" speed="6.680010" pos="92.079635" lane="24540242#1_0" slope="0.000000"/>
        <vehicle id="flow_2.0" x="13.416710" y="52.521929" angle="29.988922" type="vehDist49" speed="6.515055" pos="29.723469" lane=":junc_01_18_0" slope="0.000000"/>
        <vehicle id="flow_2.1" x="13.415138" y="52.520500" angle="34.557237" type="vehDist4" speed="5.796737" pos="63.857279" lane="24540242#1_0" slope="0.000000"/>
    </timestep>
    <timestep time="59.00">
        <vehicle id="flow_1.0" x="13.416823" y="52.522062" angle="19.813499" type="vehDist4" speed="2.306000" pos="46.367666" lane=":junc_01_18_0" slope="0.000000"/>
        <vehicle id="flow_1.1" x="13.415419" y="52.520762" angle="34.557237" type="vehDist58" speed="6.564904" pos="98.644539" lane="24540242#1_0" slope="0.000000"/>
        <vehicle id="flow_2.0" x="13.416756" y="52.521980" angle="29.253147" type="vehDist49" speed="6.462596" pos="36.186065" lane=":junc_01_18_0" slope="0.000000"/>
        <vehicle id="flow_2.1" x="13.415186" y="52.520545" angle="34.557237" type="vehDist4" speed="5.955379" pos="69.812658" lane="24540242#1_0" slope="0.000000"/>
    </timestep>
    <timestep time="60.00">
        <vehicle id="flow_1.0" x="13.416835" y="52.522076" angle="19.813499" type="vehDist4" speed="1.306000" pos="48.155916" lane=":junc_01_18_0" slope="0.000000"/>
        <vehicle id="flow_1.1" x="13.415473" y="52.520812" angle="34.557237" type="vehDist58" speed="6.665213" pos="105.309753" lane="24540242#1_0" slope="0.000000"/>
        <vehicle id="flow_2.0" x="13.416789" y="52.522021" angle="27.830613" type="vehDist49" speed="5.087687" pos="41.273753" lane=":junc_01_18_0" slope="0.000000"/>